 vasp.5.4.4.18Apr17-6-g9f103f2a35 (build Jan 24 2022 14:21:27) complex          
  
 executed on             LinuxIFC date 2022.02.03  04:51:16
 running on    6 total cores
 distrk:  each k-point on    6 cores,    1 groups
 distr:  one band on NCORES_PER_BAND=   1 cores,    6 groups


--------------------------------------------------------------------------------------------------------


 INCAR:
 POTCAR:    PAW_PBE Si 05Jan2001                  
 POTCAR:    PAW_PBE C 08Apr2002                   

 ----------------------------------------------------------------------------- 
|                                                                             |
|           W    W    AA    RRRRR   N    N  II  N    N   GGGG   !!!           |
|           W    W   A  A   R    R  NN   N  II  NN   N  G    G  !!!           |
|           W    W  A    A  R    R  N N  N  II  N N  N  G       !!!           |
|           W WW W  AAAAAA  RRRRR   N  N N  II  N  N N  G  GGG   !            |
|           WW  WW  A    A  R   R   N   NN  II  N   NN  G    G                |
|           W    W  A    A  R    R  N    N  II  N    N   GGGG   !!!           |
|                                                                             |
|      For optimal performance we recommend to set                            |
|        NCORE= 4 - approx SQRT( number of cores)                             |
|      NCORE specifies how many cores store one orbital (NPAR=cpu/NCORE).     |
|      This setting can  greatly improve the performance of VASP for DFT.     |
|      The default,   NCORE=1            might be grossly inefficient         |
|      on modern multi-core architectures or massively parallel machines.     |
|      Do your own testing !!!!                                               |
|      Unfortunately you need to use the default for GW and RPA calculations. |
|      (for HF NCORE is supported but not extensively tested yet)             |
|                                                                             |
 ----------------------------------------------------------------------------- 

 POTCAR:    PAW_PBE Si 05Jan2001                  
   VRHFIN =Si: s2p2                                                             
   LEXCH  = PE                                                                  
   EATOM  =   103.0669 eV,    7.5752 Ry                                         
                                                                                
   TITEL  = PAW_PBE Si 05Jan2001                                                
   LULTRA =        F    use ultrasoft PP ?                                      
   IUNSCR =        1    unscreen: 0-lin 1-nonlin 2-no                           
   RPACOR =    1.500    partial core radius                                     
   POMASS =   28.085; ZVAL   =    4.000    mass and valenz                      
   RCORE  =    1.900    outmost cutoff radius                                   
   RWIGS  =    2.480; RWIGS  =    1.312    wigner-seitz radius (au A)           
   ENMAX  =  245.345; ENMIN  =  184.009 eV                                      
   ICORE  =        2    local potential                                         
   LCOR   =        T    correct aug charges                                     
   LPAW   =        T    paw PP                                                  
   EAUG   =  322.069                                                            
   DEXC   =    0.000                                                            
   RMAX   =    1.950    core radius for proj-oper                               
   RAUG   =    1.300    factor for augmentation sphere                          
   RDEP   =    1.993    radius for radial grids                                 
   RDEPT  =    1.837    core radius for aug-charge                              
                                                                                
   Atomic configuration                                                         
    6 entries                                                                   
     n  l   j            E        occ.                                          
     1  0  0.50     -1785.8828   2.0000                                         
     2  0  0.50      -139.4969   2.0000                                         
     2  1  1.50       -95.5546   6.0000                                         
     3  0  0.50       -10.8127   2.0000                                         
     3  1  0.50        -4.0811   2.0000                                         
     3  2  1.50        -4.0817   0.0000                                         
   Description                                                                  
     l       E           TYP  RCUT    TYP  RCUT                                 
     0    -10.8127223     23  1.900                                             
     0     -7.6451159     23  1.900                                             
     1     -4.0811372     23  1.900                                             
     1      2.4879257     23  1.900                                             
     2     -4.0817478      7  1.900                                             
  local pseudopotential read in
  partial core-charges read in
  partial kinetic energy density read in
  atomic valenz-charges read in
  non local Contribution for L=           0  read in
    real space projection operators read in
  non local Contribution for L=           0  read in
    real space projection operators read in
  non local Contribution for L=           1  read in
    real space projection operators read in
  non local Contribution for L=           1  read in
    real space projection operators read in
    PAW grid and wavefunctions read in
 
   number of l-projection  operators is LMAX  =           4
   number of lm-projection operators is LMMAX =           8
 
 POTCAR:    PAW_PBE C 08Apr2002                   
   VRHFIN =C: s2p2                                                              
   LEXCH  = PE                                                                  
   EATOM  =   147.1560 eV,   10.8157 Ry                                         
                                                                                
   TITEL  = PAW_PBE C 08Apr2002                                                 
   LULTRA =        F    use ultrasoft PP ?                                      
   IUNSCR =        1    unscreen: 0-lin 1-nonlin 2-no                           
   RPACOR =    1.200    partial core radius                                     
   POMASS =   12.011; ZVAL   =    4.000    mass and valenz                      
   RCORE  =    1.500    outmost cutoff radius                                   
   RWIGS  =    1.630; RWIGS  =    0.863    wigner-seitz radius (au A)           
   ENMAX  =  400.000; ENMIN  =  300.000 eV                                      
   ICORE  =        2    local potential                                         
   LCOR   =        T    correct aug charges                                     
   LPAW   =        T    paw PP                                                  
   EAUG   =  644.873                                                            
   DEXC   =    0.000                                                            
   RMAX   =    1.529    core radius for proj-oper                               
   RAUG   =    1.300    factor for augmentation sphere                          
   RDEP   =    1.501    radius for radial grids                                 
   RDEPT  =    1.300    core radius for aug-charge                              
                                                                                
   Atomic configuration                                                         
    4 entries                                                                   
     n  l   j            E        occ.                                          
     1  0  0.50      -273.3789   2.0000                                         
     2  0  0.50       -13.7508   2.0000                                         
     2  1  0.50        -5.2854   2.0000                                         
     3  2  1.50        -5.4423   0.0000                                         
   Description                                                                  
     l       E           TYP  RCUT    TYP  RCUT                                 
     0    -13.7508458     23  1.200                                             
     0     -8.2022199     23  1.200                                             
     1     -5.2854383     23  1.500                                             
     1     34.0145650     23  1.500                                             
     2     -5.4423304      7  1.500                                             
  local pseudopotential read in
  partial core-charges read in
  partial kinetic energy density read in
  atomic valenz-charges read in
  non local Contribution for L=           0  read in
    real space projection operators read in
  non local Contribution for L=           0  read in
    real space projection operators read in
  non local Contribution for L=           1  read in
    real space projection operators read in
  non local Contribution for L=           1  read in
    real space projection operators read in
    PAW grid and wavefunctions read in
 
   number of l-projection  operators is LMAX  =           4
   number of lm-projection operators is LMMAX =           8
 

 ----------------------------------------------------------------------------- 
|                                                                             |
|           W    W    AA    RRRRR   N    N  II  N    N   GGGG   !!!           |
|           W    W   A  A   R    R  NN   N  II  NN   N  G    G  !!!           |
|           W    W  A    A  R    R  N N  N  II  N N  N  G       !!!           |
|           W WW W  AAAAAA  RRRRR   N  N N  II  N  N N  G  GGG   !            |
|           WW  WW  A    A  R   R   N   NN  II  N   NN  G    G                |
|           W    W  A    A  R    R  N    N  II  N    N   GGGG   !!!           |
|                                                                             |
|     The real-space-projection scheme for the treatment of the nonlocal      |
|     pseudopotentials has been switched on -- but on file POTCAR I have      |
|     not found any entries signalling me that you have ever performed a      |
|     real-space optimization of all nonlocal projectors! BE WARNED that      |
|     a calculation using the real-space-projection scheme together with      |
|     nonlocal projectors which were not real-space-optimized (according      |
|     to the plane-wave-cutoff used in this calculation) might give more      |
|     or less inaccurate results                                              |
|     I hope you know what you are doing                                      |
|                                                                             |
 ----------------------------------------------------------------------------- 

  PAW_PBE Si 05Jan2001                  :
 energy of atom  1       EATOM= -103.0669
 kinetic energy error for atom=    0.0012 (will be added to EATOM!!)
  PAW_PBE C 08Apr2002                   :
 energy of atom  2       EATOM= -147.1560
 kinetic energy error for atom=    0.0288 (will be added to EATOM!!)
 
 
 POSCAR: Primitive Cell                          
  positions in direct lattice
  No initial velocities read in
 exchange correlation table for  LEXCH =        8
   RHO(1)=    0.500       N(1)  =     2000
   RHO(2)=  100.500       N(2)  =     4000
 


--------------------------------------------------------------------------------------------------------


 ion  position               nearest neighbor table
   1  0.667  0.333  0.667-   7 1.89   7 1.89   7 1.89   9 1.90   3 3.10   3 3.10   3 3.10   6 3.10
                             6 3.10   6 3.10
   2  0.333  0.667  0.167-   8 1.89   8 1.89   8 1.89  10 1.90   4 3.10   4 3.10   4 3.10   5 3.10
                             5 3.10   5 3.10
   3  0.333  0.667  0.833-   9 1.89   9 1.89   9 1.89  11 1.90   1 3.10   1 3.10   1 3.10   5 3.10
                             5 3.10   5 3.10
   4  0.667  0.333  0.333-  10 1.89  10 1.89  10 1.89  12 1.90   2 3.10   2 3.10   2 3.10   6 3.10
                             6 3.10   6 3.10
   5  0.000  0.000  0.000-  11 1.90  11 1.90  11 1.90   8 1.90   2 3.10   2 3.10   2 3.10   3 3.10
                             3 3.10   3 3.10
   6  0.000  0.000  0.500-  12 1.90  12 1.90  12 1.90   7 1.90   1 3.10   1 3.10   1 3.10   4 3.10
                             4 3.10   4 3.10
   7  0.000  0.000  0.626-   1 1.89   1 1.89   1 1.89   6 1.90
   8  0.000  0.000  0.126-   2 1.89   2 1.89   2 1.89   5 1.90
   9  0.667  0.333  0.792-   3 1.89   3 1.89   3 1.89   1 1.90
  10  0.333  0.667  0.292-   4 1.89   4 1.89   4 1.89   2 1.90
  11  0.333  0.667  0.958-   5 1.90   5 1.90   5 1.90   3 1.90
  12  0.667  0.333  0.458-   6 1.90   6 1.90   6 1.90   4 1.90
 
  LATTYP: Found a hexagonal cell.
 ALAT       =     3.0948839188
 C/A-ratio  =     4.9063329915
  
  Lattice vectors:
  
 A1 = (   3.0948839188,   0.0000000000,   0.0000000000)
 A2 = (  -1.5474419594,   2.6802480954,   0.0000000000)
 A3 = (   0.0000000000,   0.0000000000,  15.1845310756)


Analysis of symmetry for initial positions (statically):
=====================================================================
 Subroutine PRICEL returns:
 Original cell was already a primitive cell.
 

 Routine SETGRP: Setting up the symmetry group for a 
 hexagonal supercell.


 Subroutine GETGRP returns: Found 12 space group operations
 (whereof  6 operations were pure point group operations)
 out of a pool of 24 trial point group operations.


The static configuration has the point symmetry C_3v.
 The point group associated with its full space group is C_6v.


Analysis of symmetry for dynamics (positions and initial velocities):
=====================================================================
 Subroutine PRICEL returns:
 Original cell was already a primitive cell.
 

 Routine SETGRP: Setting up the symmetry group for a 
 hexagonal supercell.


 Subroutine GETGRP returns: Found 12 space group operations
 (whereof  6 operations were pure point group operations)
 out of a pool of 24 trial point group operations.


The dynamic configuration has the point symmetry C_3v.
 The point group associated with its full space group is C_6v.


 Subroutine INISYM returns: Found 12 space group operations
 (whereof  6 operations are pure point group operations),
 and found     1 'primitive' translations

 
 
 KPOINTS: 0.040  12  12   2   38  0.040  171    9 
  k-points in reciprocal lattice
Space group operators:
 irot       det(A)        alpha          n_x          n_y          n_z        tau_x        tau_y        tau_z
    1     1.000000     0.000000     1.000000     0.000000     0.000000     0.000000     0.000000     0.000000
    2     1.000000   120.000000     0.000000     0.000000    -1.000000     0.000000     0.000000     0.000000
    3     1.000000   120.000000     0.000000     0.000000     1.000000     0.000000     0.000000     0.000000
    4    -1.000000   180.000000     1.000000     0.000000     0.000000     0.000000     0.000000     0.000000
    5    -1.000000   180.000000     0.500000    -0.866025     0.000000     0.000000     0.000000     0.000000
    6    -1.000000   180.000000    -0.500000    -0.866025     0.000000     0.000000     0.000000     0.000000
    7     1.000000    60.000000     0.000000     0.000000    -1.000000     0.000000     0.000000     0.500000
    8     1.000000   180.000000     0.000000     0.000000     1.000000     0.000000     0.000000     0.500000
    9     1.000000    60.000000     0.000000     0.000000     1.000000     0.000000     0.000000     0.500000
   10    -1.000000   180.000000     0.866025    -0.500000     0.000000     0.000000     0.000000     0.500000
   11    -1.000000   180.000000     0.000000     1.000000     0.000000     0.000000     0.000000     0.500000
   12    -1.000000   180.000000     0.866025     0.500000     0.000000     0.000000     0.000000     0.500000

 ----------------------------------------------------------------------------- 
|                                                                             |
|           W    W    AA    RRRRR   N    N  II  N    N   GGGG   !!!           |
|           W    W   A  A   R    R  NN   N  II  NN   N  G    G  !!!           |
|           W    W  A    A  R    R  N N  N  II  N N  N  G       !!!           |
|           W WW W  AAAAAA  RRRRR   N  N N  II  N  N N  G  GGG   !            |
|           WW  WW  A    A  R   R   N   NN  II  N   NN  G    G                |
|           W    W  A    A  R    R  N    N  II  N    N   GGGG   !!!           |
|                                                                             |
|      Your generating k-point grid is not commensurate to the symmetry       |
|      of the lattice.  This can cause   slow convergence with respect        |
|      to k-points for HF type calculations                                   |
|      suggested SOLUTIONS:                                                   |
|       ) if not already the case, use automatic k-point generation           |
|       ) shift your grid to Gamma (G) (e.g. required for hex or fcc lattice) |
|                                                                             |
 ----------------------------------------------------------------------------- 

 
 Subroutine IBZKPT_HF returns following result:
 ==============================================
 
 Found    459 k-points in 1st BZ
 the following    459 k-points will be used (e.g. in the exchange kernel)
 Following reciprocal coordinates:   # in IRBZ
  0.000000  0.000000  0.000000    0.00347222   1 t-inv F
  0.083333  0.000000  0.000000    0.00347222   2 t-inv F
  0.166667  0.000000  0.000000    0.00347222   3 t-inv F
  0.250000  0.000000  0.000000    0.00347222   4 t-inv F
  0.333333  0.000000  0.000000    0.00347222   5 t-inv F
  0.416667  0.000000  0.000000    0.00347222   6 t-inv F
  0.500000  0.000000  0.000000    0.00347222   7 t-inv F
  0.083333  0.083333  0.000000    0.00347222   8 t-inv F
  0.166667  0.083333  0.000000    0.00347222   9 t-inv F
  0.250000  0.083333  0.000000    0.00347222  10 t-inv F
  0.333333  0.083333  0.000000    0.00347222  11 t-inv F
  0.416667  0.083333  0.000000    0.00347222  12 t-inv F
  0.166667  0.166667  0.000000    0.00347222  13 t-inv F
  0.250000  0.166667  0.000000    0.00347222  14 t-inv F
  0.333333  0.166667  0.000000    0.00347222  15 t-inv F
  0.416667  0.166667  0.000000    0.00347222  16 t-inv F
  0.250000  0.250000  0.000000    0.00347222  17 t-inv F
  0.333333  0.250000  0.000000    0.00347222  18 t-inv F
  0.333333  0.333333  0.000000    0.00347222  19 t-inv F
  0.000000  0.000000  0.500000    0.00347222  20 t-inv F
  0.083333  0.000000  0.500000    0.00347222  21 t-inv F
  0.166667  0.000000  0.500000    0.00347222  22 t-inv F
  0.250000  0.000000  0.500000    0.00347222  23 t-inv F
  0.333333  0.000000  0.500000    0.00347222  24 t-inv F
  0.416667  0.000000  0.500000    0.00347222  25 t-inv F
  0.500000  0.000000  0.500000    0.00347222  26 t-inv F
  0.083333  0.083333  0.500000    0.00347222  27 t-inv F
  0.166667  0.083333  0.500000    0.00347222  28 t-inv F
  0.250000  0.083333  0.500000    0.00347222  29 t-inv F
  0.333333  0.083333  0.500000    0.00347222  30 t-inv F
  0.416667  0.083333  0.500000    0.00347222  31 t-inv F
  0.166667  0.166667  0.500000    0.00347222  32 t-inv F
  0.250000  0.166667  0.500000    0.00347222  33 t-inv F
  0.333333  0.166667  0.500000    0.00347222  34 t-inv F
  0.416667  0.166667  0.500000    0.00347222  35 t-inv F
  0.250000  0.250000  0.500000    0.00347222  36 t-inv F
  0.333333  0.250000  0.500000    0.00347222  37 t-inv F
  0.333333  0.333333  0.500000    0.00347222  38 t-inv F
  0.000000  0.000000  0.000000    0.00000000  39 t-inv F
  0.017857  0.000000  0.000000    0.00000000  40 t-inv F
  0.035714  0.000000  0.000000    0.00000000  41 t-inv F
  0.053571  0.000000  0.000000    0.00000000  42 t-inv F
  0.071429  0.000000  0.000000    0.00000000  43 t-inv F
  0.089286  0.000000  0.000000    0.00000000  44 t-inv F
  0.107143  0.000000  0.000000    0.00000000  45 t-inv F
  0.125000  0.000000  0.000000    0.00000000  46 t-inv F
  0.142857  0.000000  0.000000    0.00000000  47 t-inv F
  0.160714  0.000000  0.000000    0.00000000  48 t-inv F
  0.178571  0.000000  0.000000    0.00000000  49 t-inv F
  0.196429  0.000000  0.000000    0.00000000  50 t-inv F
  0.214286  0.000000  0.000000    0.00000000  51 t-inv F
  0.232143  0.000000  0.000000    0.00000000  52 t-inv F
  0.250000  0.000000  0.000000    0.00000000  53 t-inv F
  0.267857  0.000000  0.000000    0.00000000  54 t-inv F
  0.285714  0.000000  0.000000    0.00000000  55 t-inv F
  0.303571  0.000000  0.000000    0.00000000  56 t-inv F
  0.321429  0.000000  0.000000    0.00000000  57 t-inv F
  0.339286  0.000000  0.000000    0.00000000  58 t-inv F
  0.357143  0.000000  0.000000    0.00000000  59 t-inv F
  0.375000  0.000000  0.000000    0.00000000  60 t-inv F
  0.392857  0.000000  0.000000    0.00000000  61 t-inv F
  0.410714  0.000000  0.000000    0.00000000  62 t-inv F
  0.428571  0.000000  0.000000    0.00000000  63 t-inv F
  0.446429  0.000000  0.000000    0.00000000  64 t-inv F
  0.464286  0.000000  0.000000    0.00000000  65 t-inv F
  0.482143  0.000000  0.000000    0.00000000  66 t-inv F
  0.500000  0.000000  0.000000    0.00000000  67 t-inv F
  0.500000  0.000000  0.000000    0.00000000  68 t-inv F
  0.488889  0.022222  0.000000    0.00000000  69 t-inv F
  0.477778  0.044444  0.000000    0.00000000  70 t-inv F
  0.466667  0.066667  0.000000    0.00000000  71 t-inv F
  0.455556  0.088889  0.000000    0.00000000  72 t-inv F
  0.444444  0.111111  0.000000    0.00000000  73 t-inv F
  0.433333  0.133333  0.000000    0.00000000  74 t-inv F
  0.422222  0.155556  0.000000    0.00000000  75 t-inv F
  0.411111  0.177778  0.000000    0.00000000  76 t-inv F
  0.400000  0.200000  0.000000    0.00000000  77 t-inv F
  0.388889  0.222222  0.000000    0.00000000  78 t-inv F
  0.377778  0.244444  0.000000    0.00000000  79 t-inv F
  0.366667  0.266667  0.000000    0.00000000  80 t-inv F
  0.355556  0.288889  0.000000    0.00000000  81 t-inv F
  0.344444  0.311111  0.000000    0.00000000  82 t-inv F
  0.333333  0.333333  0.000000    0.00000000  83 t-inv F
  0.333333  0.333333  0.000000    0.00000000  84 t-inv F
  0.322917  0.322917  0.000000    0.00000000  85 t-inv F
  0.312500  0.312500  0.000000    0.00000000  86 t-inv F
  0.302083  0.302083  0.000000    0.00000000  87 t-inv F
  0.291667  0.291667  0.000000    0.00000000  88 t-inv F
  0.281250  0.281250  0.000000    0.00000000  89 t-inv F
  0.270833  0.270833  0.000000    0.00000000  90 t-inv F
  0.260417  0.260417  0.000000    0.00000000  91 t-inv F
  0.250000  0.250000  0.000000    0.00000000  92 t-inv F
  0.239583  0.239583  0.000000    0.00000000  93 t-inv F
  0.229167  0.229167  0.000000    0.00000000  94 t-inv F
  0.218750  0.218750  0.000000    0.00000000  95 t-inv F
  0.208333  0.208333  0.000000    0.00000000  96 t-inv F
  0.197917  0.197917  0.000000    0.00000000  97 t-inv F
  0.187500  0.187500  0.000000    0.00000000  98 t-inv F
  0.177083  0.177083  0.000000    0.00000000  99 t-inv F
  0.166667  0.166667  0.000000    0.00000000 100 t-inv F
  0.156250  0.156250  0.000000    0.00000000 101 t-inv F
  0.145833  0.145833  0.000000    0.00000000 102 t-inv F
  0.135417  0.135417  0.000000    0.00000000 103 t-inv F
  0.125000  0.125000  0.000000    0.00000000 104 t-inv F
  0.114583  0.114583  0.000000    0.00000000 105 t-inv F
  0.104167  0.104167  0.000000    0.00000000 106 t-inv F
  0.093750  0.093750  0.000000    0.00000000 107 t-inv F
  0.083333  0.083333  0.000000    0.00000000 108 t-inv F
  0.072917  0.072917  0.000000    0.00000000 109 t-inv F
  0.062500  0.062500  0.000000    0.00000000 110 t-inv F
  0.052083  0.052083  0.000000    0.00000000 111 t-inv F
  0.041667  0.041667  0.000000    0.00000000 112 t-inv F
  0.031250  0.031250  0.000000    0.00000000 113 t-inv F
  0.020833  0.020833  0.000000    0.00000000 114 t-inv F
  0.010417  0.010417  0.000000    0.00000000 115 t-inv F
  0.000000  0.000000  0.000000    0.00000000 116 t-inv F
  0.000000  0.000000  0.000000    0.00000000 117 t-inv F
  0.000000  0.000000  0.125000    0.00000000 118 t-inv F
  0.000000  0.000000  0.250000    0.00000000 119 t-inv F
  0.000000  0.000000  0.375000    0.00000000 120 t-inv F
  0.000000  0.000000  0.500000    0.00000000 121 t-inv F
  0.000000  0.000000  0.500000    0.00000000 122 t-inv F
  0.017857  0.000000  0.500000    0.00000000 123 t-inv F
  0.035714  0.000000  0.500000    0.00000000 124 t-inv F
  0.053571  0.000000  0.500000    0.00000000 125 t-inv F
  0.071429  0.000000  0.500000    0.00000000 126 t-inv F
  0.089286  0.000000  0.500000    0.00000000 127 t-inv F
  0.107143  0.000000  0.500000    0.00000000 128 t-inv F
  0.125000  0.000000  0.500000    0.00000000 129 t-inv F
  0.142857  0.000000  0.500000    0.00000000 130 t-inv F
  0.160714  0.000000  0.500000    0.00000000 131 t-inv F
  0.178571  0.000000  0.500000    0.00000000 132 t-inv F
  0.196429  0.000000  0.500000    0.00000000 133 t-inv F
  0.214286  0.000000  0.500000    0.00000000 134 t-inv F
  0.232143  0.000000  0.500000    0.00000000 135 t-inv F
  0.250000  0.000000  0.500000    0.00000000 136 t-inv F
  0.267857  0.000000  0.500000    0.00000000 137 t-inv F
  0.285714  0.000000  0.500000    0.00000000 138 t-inv F
  0.303571  0.000000  0.500000    0.00000000 139 t-inv F
  0.321429  0.000000  0.500000    0.00000000 140 t-inv F
  0.339286  0.000000  0.500000    0.00000000 141 t-inv F
  0.357143  0.000000  0.500000    0.00000000 142 t-inv F
  0.375000  0.000000  0.500000    0.00000000 143 t-inv F
  0.392857  0.000000  0.500000    0.00000000 144 t-inv F
  0.410714  0.000000  0.500000    0.00000000 145 t-inv F
  0.428571  0.000000  0.500000    0.00000000 146 t-inv F
  0.446429  0.000000  0.500000    0.00000000 147 t-inv F
  0.464286  0.000000  0.500000    0.00000000 148 t-inv F
  0.482143  0.000000  0.500000    0.00000000 149 t-inv F
  0.500000  0.000000  0.500000    0.00000000 150 t-inv F
  0.500000  0.000000  0.500000    0.00000000 151 t-inv F
  0.488889  0.022222  0.500000    0.00000000 152 t-inv F
  0.477778  0.044444  0.500000    0.00000000 153 t-inv F
  0.466667  0.066667  0.500000    0.00000000 154 t-inv F
  0.455556  0.088889  0.500000    0.00000000 155 t-inv F
  0.444444  0.111111  0.500000    0.00000000 156 t-inv F
  0.433333  0.133333  0.500000    0.00000000 157 t-inv F
  0.422222  0.155556  0.500000    0.00000000 158 t-inv F
  0.411111  0.177778  0.500000    0.00000000 159 t-inv F
  0.400000  0.200000  0.500000    0.00000000 160 t-inv F
  0.388889  0.222222  0.500000    0.00000000 161 t-inv F
  0.377778  0.244444  0.500000    0.00000000 162 t-inv F
  0.366667  0.266667  0.500000    0.00000000 163 t-inv F
  0.355556  0.288889  0.500000    0.00000000 164 t-inv F
  0.344444  0.311111  0.500000    0.00000000 165 t-inv F
  0.333333  0.333333  0.500000    0.00000000 166 t-inv F
  0.333333  0.333333  0.500000    0.00000000 167 t-inv F
  0.322917  0.322917  0.500000    0.00000000 168 t-inv F
  0.312500  0.312500  0.500000    0.00000000 169 t-inv F
  0.302083  0.302083  0.500000    0.00000000 170 t-inv F
  0.291667  0.291667  0.500000    0.00000000 171 t-inv F
  0.281250  0.281250  0.500000    0.00000000 172 t-inv F
  0.270833  0.270833  0.500000    0.00000000 173 t-inv F
  0.260417  0.260417  0.500000    0.00000000 174 t-inv F
  0.250000  0.250000  0.500000    0.00000000 175 t-inv F
  0.239583  0.239583  0.500000    0.00000000 176 t-inv F
  0.229167  0.229167  0.500000    0.00000000 177 t-inv F
  0.218750  0.218750  0.500000    0.00000000 178 t-inv F
  0.208333  0.208333  0.500000    0.00000000 179 t-inv F
  0.197917  0.197917  0.500000    0.00000000 180 t-inv F
  0.187500  0.187500  0.500000    0.00000000 181 t-inv F
  0.177083  0.177083  0.500000    0.00000000 182 t-inv F
  0.166667  0.166667  0.500000    0.00000000 183 t-inv F
  0.156250  0.156250  0.500000    0.00000000 184 t-inv F
  0.145833  0.145833  0.500000    0.00000000 185 t-inv F
  0.135417  0.135417  0.500000    0.00000000 186 t-inv F
  0.125000  0.125000  0.500000    0.00000000 187 t-inv F
  0.114583  0.114583  0.500000    0.00000000 188 t-inv F
  0.104167  0.104167  0.500000    0.00000000 189 t-inv F
  0.093750  0.093750  0.500000    0.00000000 190 t-inv F
  0.083333  0.083333  0.500000    0.00000000 191 t-inv F
  0.072917  0.072917  0.500000    0.00000000 192 t-inv F
  0.062500  0.062500  0.500000    0.00000000 193 t-inv F
  0.052083  0.052083  0.500000    0.00000000 194 t-inv F
  0.041667  0.041667  0.500000    0.00000000 195 t-inv F
  0.031250  0.031250  0.500000    0.00000000 196 t-inv F
  0.020833  0.020833  0.500000    0.00000000 197 t-inv F
  0.010417  0.010417  0.500000    0.00000000 198 t-inv F
  0.000000  0.000000  0.500000    0.00000000 199 t-inv F
  0.500000  0.000000  0.500000    0.00000000 200 t-inv F
  0.500000  0.000000  0.375000    0.00000000 201 t-inv F
  0.500000  0.000000  0.250000    0.00000000 202 t-inv F
  0.500000  0.000000  0.125000    0.00000000 203 t-inv F
  0.500000  0.000000  0.000000    0.00000000 204 t-inv F
  0.333333  0.333333  0.500000    0.00000000 205 t-inv F
  0.333333  0.333333  0.375000    0.00000000 206 t-inv F
  0.333333  0.333333  0.250000    0.00000000 207 t-inv F
  0.333333  0.333333  0.125000    0.00000000 208 t-inv F
  0.333333  0.333333  0.000000    0.00000000 209 t-inv F
 -0.083333  0.083333  0.000000    0.00347222   2 t-inv F
  0.000000 -0.083333  0.000000    0.00347222   2 t-inv F
  0.000000  0.083333  0.000000    0.00347222   2 t-inv F
 -0.083333  0.000000  0.000000    0.00347222   2 t-inv F
  0.083333 -0.083333  0.000000    0.00347222   2 t-inv F
 -0.166667  0.166667  0.000000    0.00347222   3 t-inv F
  0.000000 -0.166667  0.000000    0.00347222   3 t-inv F
  0.000000  0.166667  0.000000    0.00347222   3 t-inv F
 -0.166667  0.000000  0.000000    0.00347222   3 t-inv F
  0.166667 -0.166667  0.000000    0.00347222   3 t-inv F
 -0.250000  0.250000  0.000000    0.00347222   4 t-inv F
  0.000000 -0.250000  0.000000    0.00347222   4 t-inv F
  0.000000  0.250000  0.000000    0.00347222   4 t-inv F
 -0.250000  0.000000  0.000000    0.00347222   4 t-inv F
  0.250000 -0.250000  0.000000    0.00347222   4 t-inv F
 -0.333333  0.333333  0.000000    0.00347222   5 t-inv F
  0.000000 -0.333333  0.000000    0.00347222   5 t-inv F
  0.000000  0.333333  0.000000    0.00347222   5 t-inv F
 -0.333333  0.000000  0.000000    0.00347222   5 t-inv F
  0.333333 -0.333333  0.000000    0.00347222   5 t-inv F
 -0.416667  0.416667  0.000000    0.00347222   6 t-inv F
  0.000000 -0.416667  0.000000    0.00347222   6 t-inv F
  0.000000  0.416667  0.000000    0.00347222   6 t-inv F
 -0.416667  0.000000  0.000000    0.00347222   6 t-inv F
  0.416667 -0.416667  0.000000    0.00347222   6 t-inv F
 -0.500000  0.500000  0.000000    0.00347222   7 t-inv F
  0.000000 -0.500000  0.000000    0.00347222   7 t-inv F
 -0.166667  0.083333  0.000000    0.00347222   8 t-inv F
  0.083333 -0.166667  0.000000    0.00347222   8 t-inv F
 -0.083333  0.166667  0.000000    0.00347222   8 t-inv F
  0.166667 -0.083333  0.000000    0.00347222   8 t-inv F
 -0.083333 -0.083333  0.000000    0.00347222   8 t-inv F
 -0.250000  0.166667  0.000000    0.00347222   9 t-inv F
  0.083333 -0.250000  0.000000    0.00347222   9 t-inv F
 -0.166667  0.250000  0.000000    0.00347222   9 t-inv F
  0.250000 -0.083333  0.000000    0.00347222   9 t-inv F
 -0.083333 -0.166667  0.000000    0.00347222   9 t-inv F
 -0.083333  0.250000  0.000000    0.00347222   9 t-inv F
 -0.166667 -0.083333  0.000000    0.00347222   9 t-inv F
  0.250000 -0.166667  0.000000    0.00347222   9 t-inv F
  0.083333  0.166667  0.000000    0.00347222   9 t-inv F
  0.166667 -0.250000  0.000000    0.00347222   9 t-inv F
 -0.250000  0.083333  0.000000    0.00347222   9 t-inv F
 -0.333333  0.250000  0.000000    0.00347222  10 t-inv F
  0.083333 -0.333333  0.000000    0.00347222  10 t-inv F
 -0.250000  0.333333  0.000000    0.00347222  10 t-inv F
  0.333333 -0.083333  0.000000    0.00347222  10 t-inv F
 -0.083333 -0.250000  0.000000    0.00347222  10 t-inv F
 -0.083333  0.333333  0.000000    0.00347222  10 t-inv F
 -0.250000 -0.083333  0.000000    0.00347222  10 t-inv F
  0.333333 -0.250000  0.000000    0.00347222  10 t-inv F
  0.083333  0.250000  0.000000    0.00347222  10 t-inv F
  0.250000 -0.333333  0.000000    0.00347222  10 t-inv F
 -0.333333  0.083333  0.000000    0.00347222  10 t-inv F
 -0.416667  0.333333  0.000000    0.00347222  11 t-inv F
  0.083333 -0.416667  0.000000    0.00347222  11 t-inv F
 -0.333333  0.416667  0.000000    0.00347222  11 t-inv F
  0.416667 -0.083333  0.000000    0.00347222  11 t-inv F
 -0.083333 -0.333333  0.000000    0.00347222  11 t-inv F
 -0.083333  0.416667  0.000000    0.00347222  11 t-inv F
 -0.333333 -0.083333  0.000000    0.00347222  11 t-inv F
  0.416667 -0.333333  0.000000    0.00347222  11 t-inv F
  0.083333  0.333333  0.000000    0.00347222  11 t-inv F
  0.333333 -0.416667  0.000000    0.00347222  11 t-inv F
 -0.416667  0.083333  0.000000    0.00347222  11 t-inv F
 -0.500000  0.416667  0.000000    0.00347222  12 t-inv F
  0.083333 -0.500000  0.000000    0.00347222  12 t-inv F
 -0.416667  0.500000  0.000000    0.00347222  12 t-inv F
  0.500000 -0.083333  0.000000    0.00347222  12 t-inv F
 -0.083333 -0.416667  0.000000    0.00347222  12 t-inv F
 -0.083333  0.500000  0.000000    0.00347222  12 t-inv F
 -0.416667 -0.083333  0.000000    0.00347222  12 t-inv F
  0.500000 -0.416667  0.000000    0.00347222  12 t-inv F
  0.083333  0.416667  0.000000    0.00347222  12 t-inv F
  0.416667 -0.500000  0.000000    0.00347222  12 t-inv F
 -0.500000  0.083333  0.000000    0.00347222  12 t-inv F
 -0.333333  0.166667  0.000000    0.00347222  13 t-inv F
  0.166667 -0.333333  0.000000    0.00347222  13 t-inv F
 -0.166667  0.333333  0.000000    0.00347222  13 t-inv F
  0.333333 -0.166667  0.000000    0.00347222  13 t-inv F
 -0.166667 -0.166667  0.000000    0.00347222  13 t-inv F
 -0.416667  0.250000  0.000000    0.00347222  14 t-inv F
  0.166667 -0.416667  0.000000    0.00347222  14 t-inv F
 -0.250000  0.416667  0.000000    0.00347222  14 t-inv F
  0.416667 -0.166667  0.000000    0.00347222  14 t-inv F
 -0.166667 -0.250000  0.000000    0.00347222  14 t-inv F
 -0.166667  0.416667  0.000000    0.00347222  14 t-inv F
 -0.250000 -0.166667  0.000000    0.00347222  14 t-inv F
  0.416667 -0.250000  0.000000    0.00347222  14 t-inv F
  0.166667  0.250000  0.000000    0.00347222  14 t-inv F
  0.250000 -0.416667  0.000000    0.00347222  14 t-inv F
 -0.416667  0.166667  0.000000    0.00347222  14 t-inv F
 -0.500000  0.333333  0.000000    0.00347222  15 t-inv F
  0.166667 -0.500000  0.000000    0.00347222  15 t-inv F
 -0.333333  0.500000  0.000000    0.00347222  15 t-inv F
  0.500000 -0.166667  0.000000    0.00347222  15 t-inv F
 -0.166667 -0.333333  0.000000    0.00347222  15 t-inv F
 -0.166667  0.500000  0.000000    0.00347222  15 t-inv F
 -0.333333 -0.166667  0.000000    0.00347222  15 t-inv F
  0.500000 -0.333333  0.000000    0.00347222  15 t-inv F
  0.166667  0.333333  0.000000    0.00347222  15 t-inv F
  0.333333 -0.500000  0.000000    0.00347222  15 t-inv F
 -0.500000  0.166667  0.000000    0.00347222  15 t-inv F
 -0.583333  0.416667  0.000000    0.00347222  16 t-inv F
  0.166667 -0.583333  0.000000    0.00347222  16 t-inv F
 -0.416667  0.583333  0.000000    0.00347222  16 t-inv F
  0.583333 -0.166667  0.000000    0.00347222  16 t-inv F
 -0.166667 -0.416667  0.000000    0.00347222  16 t-inv F
 -0.500000  0.250000  0.000000    0.00347222  17 t-inv F
  0.250000 -0.500000  0.000000    0.00347222  17 t-inv F
 -0.250000  0.500000  0.000000    0.00347222  17 t-inv F
  0.500000 -0.250000  0.000000    0.00347222  17 t-inv F
 -0.250000 -0.250000  0.000000    0.00347222  17 t-inv F
 -0.583333  0.333333  0.000000    0.00347222  18 t-inv F
  0.250000 -0.583333  0.000000    0.00347222  18 t-inv F
 -0.333333  0.583333  0.000000    0.00347222  18 t-inv F
  0.583333 -0.250000  0.000000    0.00347222  18 t-inv F
 -0.250000 -0.333333  0.000000    0.00347222  18 t-inv F
 -0.250000  0.583333  0.000000    0.00347222  18 t-inv F
 -0.333333 -0.250000  0.000000    0.00347222  18 t-inv F
  0.583333 -0.333333  0.000000    0.00347222  18 t-inv F
  0.250000  0.333333  0.000000    0.00347222  18 t-inv F
  0.333333 -0.583333  0.000000    0.00347222  18 t-inv F
 -0.583333  0.250000  0.000000    0.00347222  18 t-inv F
 -0.333333  0.666667  0.000000    0.00347222  19 t-inv F
 -0.083333  0.083333  0.500000    0.00347222  21 t-inv F
  0.000000 -0.083333  0.500000    0.00347222  21 t-inv F
  0.000000  0.083333  0.500000    0.00347222  21 t-inv F
 -0.083333  0.000000  0.500000    0.00347222  21 t-inv F
  0.083333 -0.083333  0.500000    0.00347222  21 t-inv F
 -0.166667  0.166667  0.500000    0.00347222  22 t-inv F
  0.000000 -0.166667  0.500000    0.00347222  22 t-inv F
  0.000000  0.166667  0.500000    0.00347222  22 t-inv F
 -0.166667  0.000000  0.500000    0.00347222  22 t-inv F
  0.166667 -0.166667  0.500000    0.00347222  22 t-inv F
 -0.250000  0.250000  0.500000    0.00347222  23 t-inv F
  0.000000 -0.250000  0.500000    0.00347222  23 t-inv F
  0.000000  0.250000  0.500000    0.00347222  23 t-inv F
 -0.250000  0.000000  0.500000    0.00347222  23 t-inv F
  0.250000 -0.250000  0.500000    0.00347222  23 t-inv F
 -0.333333  0.333333  0.500000    0.00347222  24 t-inv F
  0.000000 -0.333333  0.500000    0.00347222  24 t-inv F
  0.000000  0.333333  0.500000    0.00347222  24 t-inv F
 -0.333333  0.000000  0.500000    0.00347222  24 t-inv F
  0.333333 -0.333333  0.500000    0.00347222  24 t-inv F
 -0.416667  0.416667  0.500000    0.00347222  25 t-inv F
  0.000000 -0.416667  0.500000    0.00347222  25 t-inv F
  0.000000  0.416667  0.500000    0.00347222  25 t-inv F
 -0.416667  0.000000  0.500000    0.00347222  25 t-inv F
  0.416667 -0.416667  0.500000    0.00347222  25 t-inv F
 -0.500000  0.500000  0.500000    0.00347222  26 t-inv F
  0.000000 -0.500000  0.500000    0.00347222  26 t-inv F
 -0.166667  0.083333  0.500000    0.00347222  27 t-inv F
  0.083333 -0.166667  0.500000    0.00347222  27 t-inv F
 -0.083333  0.166667  0.500000    0.00347222  27 t-inv F
  0.166667 -0.083333  0.500000    0.00347222  27 t-inv F
 -0.083333 -0.083333  0.500000    0.00347222  27 t-inv F
 -0.250000  0.166667  0.500000    0.00347222  28 t-inv F
  0.083333 -0.250000  0.500000    0.00347222  28 t-inv F
 -0.166667  0.250000  0.500000    0.00347222  28 t-inv F
  0.250000 -0.083333  0.500000    0.00347222  28 t-inv F
 -0.083333 -0.166667  0.500000    0.00347222  28 t-inv F
 -0.083333  0.250000  0.500000    0.00347222  28 t-inv F
 -0.166667 -0.083333  0.500000    0.00347222  28 t-inv F
  0.250000 -0.166667  0.500000    0.00347222  28 t-inv F
  0.083333  0.166667  0.500000    0.00347222  28 t-inv F
  0.166667 -0.250000  0.500000    0.00347222  28 t-inv F
 -0.250000  0.083333  0.500000    0.00347222  28 t-inv F
 -0.333333  0.250000  0.500000    0.00347222  29 t-inv F
  0.083333 -0.333333  0.500000    0.00347222  29 t-inv F
 -0.250000  0.333333  0.500000    0.00347222  29 t-inv F
  0.333333 -0.083333  0.500000    0.00347222  29 t-inv F
 -0.083333 -0.250000  0.500000    0.00347222  29 t-inv F
 -0.083333  0.333333  0.500000    0.00347222  29 t-inv F
 -0.250000 -0.083333  0.500000    0.00347222  29 t-inv F
  0.333333 -0.250000  0.500000    0.00347222  29 t-inv F
  0.083333  0.250000  0.500000    0.00347222  29 t-inv F
  0.250000 -0.333333  0.500000    0.00347222  29 t-inv F
 -0.333333  0.083333  0.500000    0.00347222  29 t-inv F
 -0.416667  0.333333  0.500000    0.00347222  30 t-inv F
  0.083333 -0.416667  0.500000    0.00347222  30 t-inv F
 -0.333333  0.416667  0.500000    0.00347222  30 t-inv F
  0.416667 -0.083333  0.500000    0.00347222  30 t-inv F
 -0.083333 -0.333333  0.500000    0.00347222  30 t-inv F
 -0.083333  0.416667  0.500000    0.00347222  30 t-inv F
 -0.333333 -0.083333  0.500000    0.00347222  30 t-inv F
  0.416667 -0.333333  0.500000    0.00347222  30 t-inv F
  0.083333  0.333333  0.500000    0.00347222  30 t-inv F
  0.333333 -0.416667  0.500000    0.00347222  30 t-inv F
 -0.416667  0.083333  0.500000    0.00347222  30 t-inv F
 -0.500000  0.416667  0.500000    0.00347222  31 t-inv F
  0.083333 -0.500000  0.500000    0.00347222  31 t-inv F
 -0.416667  0.500000  0.500000    0.00347222  31 t-inv F
  0.500000 -0.083333  0.500000    0.00347222  31 t-inv F
 -0.083333 -0.416667  0.500000    0.00347222  31 t-inv F
 -0.083333  0.500000  0.500000    0.00347222  31 t-inv F
 -0.416667 -0.083333  0.500000    0.00347222  31 t-inv F
  0.500000 -0.416667  0.500000    0.00347222  31 t-inv F
  0.083333  0.416667  0.500000    0.00347222  31 t-inv F
  0.416667 -0.500000  0.500000    0.00347222  31 t-inv F
 -0.500000  0.083333  0.500000    0.00347222  31 t-inv F
 -0.333333  0.166667  0.500000    0.00347222  32 t-inv F
  0.166667 -0.333333  0.500000    0.00347222  32 t-inv F
 -0.166667  0.333333  0.500000    0.00347222  32 t-inv F
  0.333333 -0.166667  0.500000    0.00347222  32 t-inv F
 -0.166667 -0.166667  0.500000    0.00347222  32 t-inv F
 -0.416667  0.250000  0.500000    0.00347222  33 t-inv F
  0.166667 -0.416667  0.500000    0.00347222  33 t-inv F
 -0.250000  0.416667  0.500000    0.00347222  33 t-inv F
  0.416667 -0.166667  0.500000    0.00347222  33 t-inv F
 -0.166667 -0.250000  0.500000    0.00347222  33 t-inv F
 -0.166667  0.416667  0.500000    0.00347222  33 t-inv F
 -0.250000 -0.166667  0.500000    0.00347222  33 t-inv F
  0.416667 -0.250000  0.500000    0.00347222  33 t-inv F
  0.166667  0.250000  0.500000    0.00347222  33 t-inv F
  0.250000 -0.416667  0.500000    0.00347222  33 t-inv F
 -0.416667  0.166667  0.500000    0.00347222  33 t-inv F
 -0.500000  0.333333  0.500000    0.00347222  34 t-inv F
  0.166667 -0.500000  0.500000    0.00347222  34 t-inv F
 -0.333333  0.500000  0.500000    0.00347222  34 t-inv F
  0.500000 -0.166667  0.500000    0.00347222  34 t-inv F
 -0.166667 -0.333333  0.500000    0.00347222  34 t-inv F
 -0.166667  0.500000  0.500000    0.00347222  34 t-inv F
 -0.333333 -0.166667  0.500000    0.00347222  34 t-inv F
  0.500000 -0.333333  0.500000    0.00347222  34 t-inv F
  0.166667  0.333333  0.500000    0.00347222  34 t-inv F
  0.333333 -0.500000  0.500000    0.00347222  34 t-inv F
 -0.500000  0.166667  0.500000    0.00347222  34 t-inv F
 -0.583333  0.416667  0.500000    0.00347222  35 t-inv F
  0.166667 -0.583333  0.500000    0.00347222  35 t-inv F
 -0.416667  0.583333  0.500000    0.00347222  35 t-inv F
  0.583333 -0.166667  0.500000    0.00347222  35 t-inv F
 -0.166667 -0.416667  0.500000    0.00347222  35 t-inv F
 -0.500000  0.250000  0.500000    0.00347222  36 t-inv F
  0.250000 -0.500000  0.500000    0.00347222  36 t-inv F
 -0.250000  0.500000  0.500000    0.00347222  36 t-inv F
  0.500000 -0.250000  0.500000    0.00347222  36 t-inv F
 -0.250000 -0.250000  0.500000    0.00347222  36 t-inv F
 -0.583333  0.333333  0.500000    0.00347222  37 t-inv F
  0.250000 -0.583333  0.500000    0.00347222  37 t-inv F
 -0.333333  0.583333  0.500000    0.00347222  37 t-inv F
  0.583333 -0.250000  0.500000    0.00347222  37 t-inv F
 -0.250000 -0.333333  0.500000    0.00347222  37 t-inv F
 -0.250000  0.583333  0.500000    0.00347222  37 t-inv F
 -0.333333 -0.250000  0.500000    0.00347222  37 t-inv F
  0.583333 -0.333333  0.500000    0.00347222  37 t-inv F
  0.250000  0.333333  0.500000    0.00347222  37 t-inv F
  0.333333 -0.583333  0.500000    0.00347222  37 t-inv F
 -0.583333  0.250000  0.500000    0.00347222  37 t-inv F
 -0.333333  0.666667  0.500000    0.00347222  38 t-inv F


--------------------------------------------------------------------------------------------------------




 Dimension of arrays:
   k-points           NKPTS =    209   k-points in BZ     NKDIM =    459   number of bands    NBANDS=     36
   number of dos      NEDOS =   2001   number of ions     NIONS =     12
   non local maximal  LDIM  =      4   non local SUM 2l+1 LMDIM =      8
   total plane-waves  NPLWV =  20480
   max r-space proj   IRMAX =    797   max aug-charges    IRDMAX=  43685
   dimension x,y,z NGX =    16 NGY =   16 NGZ =   80
   dimension x,y,z NGXF=    32 NGYF=   32 NGZF=  160
   support grid    NGXF=    64 NGYF=   64 NGZF=  320
   ions per type =               6   6
   NGX,Y,Z   is equivalent  to a cutoff of   8.59,  8.59,  8.76 a.u.
   NGXF,Y,Z  is equivalent  to a cutoff of  17.19, 17.19, 17.52 a.u.

 SYSTEM =  unknown system                          
 POSCAR =  Primitive Cell                          

 Startparameter for this run:
   NWRITE =      2    write-flag & timer
   PREC   = normal    normal or accurate (medium, high low for compatibility)
   ISTART =      0    job   : 0-new  1-cont  2-samecut
   ICHARG =      2    charge: 1-file 2-atom 10-const
   ISPIN  =      1    spin polarized calculation?
   LNONCOLLINEAR =      F non collinear calculations
   LSORBIT =      F    spin-orbit coupling
   INIWAV =      1    electr: 0-lowe 1-rand  2-diag
   LASPH  =      F    aspherical Exc in radial PAW
   METAGGA=      F    non-selfconsistent MetaGGA calc.

 Electronic Relaxation 1
   ENCUT  =  400.0 eV  29.40 Ry    5.42 a.u.   5.05  5.05 24.76*2*pi/ulx,y,z
   ENINI  =  400.0     initial cutoff
   ENAUG  =  644.9 eV  augmentation charge cutoff
   NELM   =     60;   NELMIN=  2; NELMDL=  0     # of ELM steps 
   EDIFF  = 0.1E-07   stopping-criterion for ELM
   LREAL  =      T    real-space projection
   NLSPLINE    = F    spline interpolate recip. space projectors
   LCOMPAT=      F    compatible to vasp.4.4
   GGA_COMPAT  = T    GGA compatible to vasp.4.4-vasp.4.6
   LMAXPAW     = -100 max onsite density
   LMAXMIX     =    2 max onsite mixed and CHGCAR
   VOSKOWN=      0    Vosko Wilk Nusair interpolation
   ROPT   =    0.00000   0.00000
 Ionic relaxation
   EDIFFG = 0.1E-06   stopping-criterion for IOM
   NSW    =      0    number of steps for IOM
   NBLOCK =      1;   KBLOCK =      1    inner block; outer block 
   IBRION =     -1    ionic relax: 0-MD 1-quasi-New 2-CG
   NFREE  =      0    steps in history (QN), initial steepest desc. (CG)
   ISIF   =      0    stress and relaxation
   IWAVPR =     10    prediction:  0-non 1-charg 2-wave 3-comb
   ISYM   =      3    0-nonsym 1-usesym 2-fastsym
   LCORR  =      T    Harris-Foulkes like correction to forces

   POTIM  = 0.5000    time-step for ionic-motion
   TEIN   =    0.0    initial temperature
   TEBEG  =    0.0;   TEEND  =   0.0 temperature during run
   SMASS  =  -3.00    Nose mass-parameter (am)
   estimated Nose-frequenzy (Omega)   =  0.10E-29 period in steps =****** mass=  -0.219E-27a.u.
   SCALEE = 1.0000    scale energy and forces
   NPACO  =    256;   APACO  = 16.0  distance and # of slots for P.C.
   PSTRESS=    0.0 pullay stress

  Mass of Ions in am
   POMASS =  28.09 12.01
  Ionic Valenz
   ZVAL   =   4.00  4.00
  Atomic Wigner-Seitz radii
   RWIGS  =  -1.00 -1.00
  virtual crystal weights 
   VCA    =   1.00  1.00
   NELECT =      48.0000    total number of electrons
   NUPDOWN=      -1.0000    fix difference up-down

 DOS related values:
   EMIN   =  10.00;   EMAX   =-10.00  energy-range for DOS
   EFERMI =   0.00
   ISMEAR =     0;   SIGMA  =   0.05  broadening in eV -4-tet -1-fermi 0-gaus

 Electronic relaxation 2 (details)
   IALGO  =     58    algorithm
   LDIAG  =      T    sub-space diagonalisation (order eigenvalues)
   LSUBROT=      F    optimize rotation matrix (better conditioning)
   TURBO    =      0    0=normal 1=particle mesh
   IRESTART =      0    0=no restart 2=restart with 2 vectors
   NREBOOT  =      0    no. of reboots
   NMIN     =      0    reboot dimension
   EREF     =   0.00    reference energy to select bands
   IMIX   =      4    mixing-type and parameters
     AMIX     =   0.40;   BMIX     =  1.00
     AMIX_MAG =   1.60;   BMIX_MAG =  1.00
     AMIN     =   0.10
     WC   =   100.;   INIMIX=   1;  MIXPRE=   1;  MAXMIX= -45

 Intra band minimization:
   WEIMIN = 0.0000     energy-eigenvalue tresh-hold
   EBREAK =  0.69E-10  absolut break condition
   DEPER  =   0.30     relativ break condition  

   TIME   =   0.40     timestep for ELM

  volume/ion in A,a.u.               =      10.50        70.83
  Fermi-wavevector in a.u.,A,eV,Ry     =   1.186902  2.242920 19.167034  1.408737
  Thomas-Fermi vector in A             =   2.323065
 
 Write flags
   LWAVE        =      T    write WAVECAR
   LDOWNSAMPLE  =      F    k-point downsampling of WAVECAR
   LCHARG       =      T    write CHGCAR
   LVTOT        =      F    write LOCPOT, total local potential
   LVHAR        =      F    write LOCPOT, Hartree potential only
   LELF         =      F    write electronic localiz. function (ELF)
   LORBIT       =     11    0 simple, 1 ext, 2 COOP (PROOUT), +10 PAW based schemes


 Dipole corrections
   LMONO  =      F    monopole corrections only (constant potential shift)
   LDIPOL =      F    correct potential (dipole corrections)
   IDIPOL =      0    1-x, 2-y, 3-z, 4-all directions 
   EPSILON=  1.0000000 bulk dielectric constant

 Exchange correlation treatment:
   GGA     =    --    GGA type
   LEXCH   =     8    internal setting for exchange type
   VOSKOWN=      0    Vosko Wilk Nusair interpolation
   EXXOEP  =     0    0=HF, 1=EXX-LHF (local Hartree Fock) 2=EXX OEP
   LHFCALC =     T    Hartree Fock is set to
   LSYMGRAD=     F    symmetrize gradient (conserves proper symmetry)
   PRECFOCK=normal    Normal, Fast or Accurate (Low or Medium for compatibility)
   LRHFCALC=     F    long range Hartree Fock
   LRSCOR  =     F    long range correlation only (use DFT for short range part)
   LTHOMAS =     F    Thomas Fermi screening in HF
   LMODELHF=     F    short range full HF, long range fraction AEXX
   ENCUT4O =  -1.0   cutoff for four orbital integrals eV
   LMAXFOCK=     4    L truncation for augmentation on plane wave grid
   LMAXFOCKAE=  -1    L truncation for all-electron charge restoration on plane wave grid
   NMAXFOCKAE=   1    number of basis functions for all-electron charge restoration
   LFOCKAEDFT=     F  apply the AE augmentation even for DFT
   NKREDX  =     1    reduce k-point grid by
   NKREDY  =     1    reduce k-point grid by
   NKREDZ  =     1    reduce k-point grid by
   SHIFTRED=     F    shift reduced grid of Gamma
   HFKIDENT=     F    idential grid for each k-point
   ODDONLY =     F    use only odd q-grid points
   EVENONLY=     F    use only even q-grid points
   HFALPHA =   -1.0000 decay constant for conv. correction
   MCALPHA =    0.0000 extent of test-charge in conv. correction in multipole expansion
   AEXX    =    0.2500 exact exchange contribution
   HFSCREEN=    0.2000 screening length (either q_TF or 0.3 A-1)
   HFSCREENC=   0.2000 screening length for correlation (either q_TF or 0.3 A-1)
   HFRCUT  =    0.0000 spherical cutoff for potential kernel
   ALDAX   =    0.7500 LDA exchange part
   AGGAX   =    0.7500 GGA exchange part
   ALDAC   =    1.0000 LDA correlation
   AGGAC   =    1.0000 GGA correlation
   NBANDSGWLOW=     1    first orbital included in HF term
   ENCUTFOCK=  -1.0 apply spherical cutoff to Coloumb kernel
 Linear response parameters
   LEPSILON=     F    determine dielectric tensor
   LRPA    =     F    only Hartree local field effects (RPA)
   LNABLA  =     F    use nabla operator in PAW spheres
   LVEL    =     F    velocity operator in full k-point grid
   LINTERFAST=   F  fast interpolation
   KINTER  =     0    interpolate to denser k-point grid
   CSHIFT  =0.1000    complex shift for real part using Kramers Kronig
   OMEGAMAX=  -1.0    maximum frequency
   DEG_THRESHOLD= 0.2000000E-02 threshold for treating states as degnerate
   RTIME   =   -0.100 relaxation time in fs
  (WPLASMAI=    0.000 imaginary part of plasma frequency in eV, 0.658/RTIME)
   DFIELD  = 0.0000000 0.0000000 0.0000000 field for delta impulse in time
 
 Orbital magnetization related:
   ORBITALMAG=     F  switch on orbital magnetization
   LCHIMAG   =     F  perturbation theory with respect to B field
   DQ        =  0.001000  dq finite difference perturbation B field
   LLRAUG    =     F  two centre corrections for induced B field



--------------------------------------------------------------------------------------------------------


 Static calculation
 charge density and potential will be updated during run
 non-spin polarized calculation
 Conjugate gradient for all bands (Freysoldt, et al. PRB 79, 241103 (2009))
 preconditioned conjugated gradient                                        
 perform sub-space diagonalisation
    before iterative eigenvector-optimisation
 modified Broyden-mixing scheme, WC =      100.0
 initial mixing is a Kerker type mixing with AMIX =  0.4000 and BMIX =      1.0000
 Hartree-type preconditioning will be used
 using additional bands           12
 real space projection scheme for non local part
 use partial core corrections
 no Harris-corrections to forces 
 use gradient corrections 
 use of overlap-Matrix (Vanderbilt PP)
 Gauss-broadening in eV      SIGMA  =   0.05


--------------------------------------------------------------------------------------------------------


  energy-cutoff  :      400.00
  volume of cell :      125.96
      direct lattice vectors                 reciprocal lattice vectors
     3.094883919  0.000000000  0.000000000     0.323113896  0.186549895  0.000000000
    -1.547441959  2.680248095  0.000000000     0.000000000  0.373099789  0.000000000
     0.000000000  0.000000000 15.184531076     0.000000000  0.000000000  0.065856495

  length of vectors
     3.094883919  3.094883919 15.184531076     0.373099789  0.373099789  0.065856495


 
 k-points in units of 2pi/SCALE and weight: 0.040  12  12   2   38  0.040  171    9 
   0.00000000  0.00000000  0.00000000       0.003
   0.02692616  0.01554582  0.00000000       0.021
   0.05385232  0.03109165  0.00000000       0.021
   0.08077847  0.04663747  0.00000000       0.021
   0.10770463  0.06218330  0.00000000       0.021
   0.13463079  0.07772912  0.00000000       0.021
   0.16155695  0.09327495  0.00000000       0.010
   0.02692616  0.04663747  0.00000000       0.021
   0.05385232  0.06218330  0.00000000       0.042
   0.08077847  0.07772912  0.00000000       0.042
   0.10770463  0.09327495  0.00000000       0.042
   0.13463079  0.10882077  0.00000000       0.042
   0.05385232  0.09327495  0.00000000       0.021
   0.08077847  0.10882077  0.00000000       0.042
   0.10770463  0.12436660  0.00000000       0.042
   0.13463079  0.13991242  0.00000000       0.021
   0.08077847  0.13991242  0.00000000       0.021
   0.10770463  0.15545825  0.00000000       0.042
   0.10770463  0.18654989  0.00000000       0.007
   0.00000000  0.00000000  0.03292825       0.003
   0.02692616  0.01554582  0.03292825       0.021
   0.05385232  0.03109165  0.03292825       0.021
   0.08077847  0.04663747  0.03292825       0.021
   0.10770463  0.06218330  0.03292825       0.021
   0.13463079  0.07772912  0.03292825       0.021
   0.16155695  0.09327495  0.03292825       0.010
   0.02692616  0.04663747  0.03292825       0.021
   0.05385232  0.06218330  0.03292825       0.042
   0.08077847  0.07772912  0.03292825       0.042
   0.10770463  0.09327495  0.03292825       0.042
   0.13463079  0.10882077  0.03292825       0.042
   0.05385232  0.09327495  0.03292825       0.021
   0.08077847  0.10882077  0.03292825       0.042
   0.10770463  0.12436660  0.03292825       0.042
   0.13463079  0.13991242  0.03292825       0.021
   0.08077847  0.13991242  0.03292825       0.021
   0.10770463  0.15545825  0.03292825       0.042
   0.10770463  0.18654989  0.03292825       0.007
   0.00000000  0.00000000  0.00000000       0.000
   0.00576989  0.00333125  0.00000000       0.000
   0.01153978  0.00666250  0.00000000       0.000
   0.01730967  0.00999374  0.00000000       0.000
   0.02307956  0.01332499  0.00000000       0.000
   0.02884945  0.01665624  0.00000000       0.000
   0.03461935  0.01998749  0.00000000       0.000
   0.04038924  0.02331874  0.00000000       0.000
   0.04615913  0.02664998  0.00000000       0.000
   0.05192902  0.02998123  0.00000000       0.000
   0.05769891  0.03331248  0.00000000       0.000
   0.06346880  0.03664373  0.00000000       0.000
   0.06923869  0.03997498  0.00000000       0.000
   0.07500858  0.04330623  0.00000000       0.000
   0.08077847  0.04663747  0.00000000       0.000
   0.08654836  0.04996872  0.00000000       0.000
   0.09231826  0.05329997  0.00000000       0.000
   0.09808815  0.05663122  0.00000000       0.000
   0.10385804  0.05996247  0.00000000       0.000
   0.10962793  0.06329371  0.00000000       0.000
   0.11539782  0.06662496  0.00000000       0.000
   0.12116771  0.06995621  0.00000000       0.000
   0.12693760  0.07328746  0.00000000       0.000
   0.13270749  0.07661871  0.00000000       0.000
   0.13847738  0.07994995  0.00000000       0.000
   0.14424727  0.08328120  0.00000000       0.000
   0.15001717  0.08661245  0.00000000       0.000
   0.15578706  0.08994370  0.00000000       0.000
   0.16155695  0.09327495  0.00000000       0.000
   0.16155695  0.09327495  0.00000000       0.000
   0.15796679  0.09949328  0.00000000       0.000
   0.15437664  0.10571161  0.00000000       0.000
   0.15078648  0.11192994  0.00000000       0.000
   0.14719633  0.11814827  0.00000000       0.000
   0.14360618  0.12436660  0.00000000       0.000
   0.14001602  0.13058493  0.00000000       0.000
   0.13642587  0.13680326  0.00000000       0.000
   0.13283571  0.14302159  0.00000000       0.000
   0.12924556  0.14923992  0.00000000       0.000
   0.12565540  0.15545825  0.00000000       0.000
   0.12206525  0.16167658  0.00000000       0.000
   0.11847510  0.16789491  0.00000000       0.000
   0.11488494  0.17411324  0.00000000       0.000
   0.11129479  0.18033156  0.00000000       0.000
   0.10770463  0.18654989  0.00000000       0.000
   0.10770463  0.18654989  0.00000000       0.000
   0.10433886  0.18072021  0.00000000       0.000
   0.10097309  0.17489053  0.00000000       0.000
   0.09760732  0.16906084  0.00000000       0.000
   0.09424155  0.16323116  0.00000000       0.000
   0.09087578  0.15740147  0.00000000       0.000
   0.08751001  0.15157179  0.00000000       0.000
   0.08414424  0.14574211  0.00000000       0.000
   0.08077847  0.13991242  0.00000000       0.000
   0.07741270  0.13408274  0.00000000       0.000
   0.07404693  0.12825305  0.00000000       0.000
   0.07068116  0.12242337  0.00000000       0.000
   0.06731539  0.11659368  0.00000000       0.000
   0.06394963  0.11076400  0.00000000       0.000
   0.06058386  0.10493432  0.00000000       0.000
   0.05721809  0.09910463  0.00000000       0.000
   0.05385232  0.09327495  0.00000000       0.000
   0.05048655  0.08744526  0.00000000       0.000
   0.04712078  0.08161558  0.00000000       0.000
   0.04375501  0.07578589  0.00000000       0.000
   0.04038924  0.06995621  0.00000000       0.000
   0.03702347  0.06412653  0.00000000       0.000
   0.03365770  0.05829684  0.00000000       0.000
   0.03029193  0.05246716  0.00000000       0.000
   0.02692616  0.04663747  0.00000000       0.000
   0.02356039  0.04080779  0.00000000       0.000
   0.02019462  0.03497811  0.00000000       0.000
   0.01682885  0.02914842  0.00000000       0.000
   0.01346308  0.02331874  0.00000000       0.000
   0.01009731  0.01748905  0.00000000       0.000
   0.00673154  0.01165937  0.00000000       0.000
   0.00336577  0.00582968  0.00000000       0.000
   0.00000000  0.00000000  0.00000000       0.000
   0.00000000  0.00000000  0.00000000       0.000
   0.00000000  0.00000000  0.00823206       0.000
   0.00000000  0.00000000  0.01646412       0.000
   0.00000000  0.00000000  0.02469619       0.000
   0.00000000  0.00000000  0.03292825       0.000
   0.00000000  0.00000000  0.03292825       0.000
   0.00576989  0.00333125  0.03292825       0.000
   0.01153978  0.00666250  0.03292825       0.000
   0.01730967  0.00999374  0.03292825       0.000
   0.02307956  0.01332499  0.03292825       0.000
   0.02884945  0.01665624  0.03292825       0.000
   0.03461935  0.01998749  0.03292825       0.000
   0.04038924  0.02331874  0.03292825       0.000
   0.04615913  0.02664998  0.03292825       0.000
   0.05192902  0.02998123  0.03292825       0.000
   0.05769891  0.03331248  0.03292825       0.000
   0.06346880  0.03664373  0.03292825       0.000
   0.06923869  0.03997498  0.03292825       0.000
   0.07500858  0.04330623  0.03292825       0.000
   0.08077847  0.04663747  0.03292825       0.000
   0.08654836  0.04996872  0.03292825       0.000
   0.09231826  0.05329997  0.03292825       0.000
   0.09808815  0.05663122  0.03292825       0.000
   0.10385804  0.05996247  0.03292825       0.000
   0.10962793  0.06329371  0.03292825       0.000
   0.11539782  0.06662496  0.03292825       0.000
   0.12116771  0.06995621  0.03292825       0.000
   0.12693760  0.07328746  0.03292825       0.000
   0.13270749  0.07661871  0.03292825       0.000
   0.13847738  0.07994995  0.03292825       0.000
   0.14424727  0.08328120  0.03292825       0.000
   0.15001717  0.08661245  0.03292825       0.000
   0.15578706  0.08994370  0.03292825       0.000
   0.16155695  0.09327495  0.03292825       0.000
   0.16155695  0.09327495  0.03292825       0.000
   0.15796679  0.09949328  0.03292825       0.000
   0.15437664  0.10571161  0.03292825       0.000
   0.15078648  0.11192994  0.03292825       0.000
   0.14719633  0.11814827  0.03292825       0.000
   0.14360618  0.12436660  0.03292825       0.000
   0.14001602  0.13058493  0.03292825       0.000
   0.13642587  0.13680326  0.03292825       0.000
   0.13283571  0.14302159  0.03292825       0.000
   0.12924556  0.14923992  0.03292825       0.000
   0.12565540  0.15545825  0.03292825       0.000
   0.12206525  0.16167658  0.03292825       0.000
   0.11847510  0.16789491  0.03292825       0.000
   0.11488494  0.17411324  0.03292825       0.000
   0.11129479  0.18033156  0.03292825       0.000
   0.10770463  0.18654989  0.03292825       0.000
   0.10770463  0.18654989  0.03292825       0.000
   0.10433886  0.18072021  0.03292825       0.000
   0.10097309  0.17489053  0.03292825       0.000
   0.09760732  0.16906084  0.03292825       0.000
   0.09424155  0.16323116  0.03292825       0.000
   0.09087578  0.15740147  0.03292825       0.000
   0.08751001  0.15157179  0.03292825       0.000
   0.08414424  0.14574211  0.03292825       0.000
   0.08077847  0.13991242  0.03292825       0.000
   0.07741270  0.13408274  0.03292825       0.000
   0.07404693  0.12825305  0.03292825       0.000
   0.07068116  0.12242337  0.03292825       0.000
   0.06731539  0.11659368  0.03292825       0.000
   0.06394963  0.11076400  0.03292825       0.000
   0.06058386  0.10493432  0.03292825       0.000
   0.05721809  0.09910463  0.03292825       0.000
   0.05385232  0.09327495  0.03292825       0.000
   0.05048655  0.08744526  0.03292825       0.000
   0.04712078  0.08161558  0.03292825       0.000
   0.04375501  0.07578589  0.03292825       0.000
   0.04038924  0.06995621  0.03292825       0.000
   0.03702347  0.06412653  0.03292825       0.000
   0.03365770  0.05829684  0.03292825       0.000
   0.03029193  0.05246716  0.03292825       0.000
   0.02692616  0.04663747  0.03292825       0.000
   0.02356039  0.04080779  0.03292825       0.000
   0.02019462  0.03497811  0.03292825       0.000
   0.01682885  0.02914842  0.03292825       0.000
   0.01346308  0.02331874  0.03292825       0.000
   0.01009731  0.01748905  0.03292825       0.000
   0.00673154  0.01165937  0.03292825       0.000
   0.00336577  0.00582968  0.03292825       0.000
   0.00000000  0.00000000  0.03292825       0.000
   0.16155695  0.09327495  0.03292825       0.000
   0.16155695  0.09327495  0.02469619       0.000
   0.16155695  0.09327495  0.01646412       0.000
   0.16155695  0.09327495  0.00823206       0.000
   0.16155695  0.09327495  0.00000000       0.000
   0.10770463  0.18654989  0.03292825       0.000
   0.10770463  0.18654989  0.02469619       0.000
   0.10770463  0.18654989  0.01646412       0.000
   0.10770463  0.18654989  0.00823206       0.000
   0.10770463  0.18654989  0.00000000       0.000
 
 k-points in reciprocal lattice and weights: 0.040  12  12   2   38  0.040  171    9 
   0.00000000  0.00000000  0.00000000       0.003
   0.08333333  0.00000000  0.00000000       0.021
   0.16666667  0.00000000  0.00000000       0.021
   0.25000000  0.00000000  0.00000000       0.021
   0.33333333  0.00000000  0.00000000       0.021
   0.41666667  0.00000000  0.00000000       0.021
   0.50000000  0.00000000  0.00000000       0.010
   0.08333333  0.08333333  0.00000000       0.021
   0.16666667  0.08333333  0.00000000       0.042
   0.25000000  0.08333333  0.00000000       0.042
   0.33333333  0.08333333  0.00000000       0.042
   0.41666667  0.08333333  0.00000000       0.042
   0.16666667  0.16666667  0.00000000       0.021
   0.25000000  0.16666667  0.00000000       0.042
   0.33333333  0.16666667  0.00000000       0.042
   0.41666667  0.16666667  0.00000000       0.021
   0.25000000  0.25000000  0.00000000       0.021
   0.33333333  0.25000000  0.00000000       0.042
   0.33333333  0.33333333  0.00000000       0.007
   0.00000000  0.00000000  0.50000000       0.003
   0.08333333  0.00000000  0.50000000       0.021
   0.16666667  0.00000000  0.50000000       0.021
   0.25000000  0.00000000  0.50000000       0.021
   0.33333333  0.00000000  0.50000000       0.021
   0.41666667  0.00000000  0.50000000       0.021
   0.50000000  0.00000000  0.50000000       0.010
   0.08333333  0.08333333  0.50000000       0.021
   0.16666667  0.08333333  0.50000000       0.042
   0.25000000  0.08333333  0.50000000       0.042
   0.33333333  0.08333333  0.50000000       0.042
   0.41666667  0.08333333  0.50000000       0.042
   0.16666667  0.16666667  0.50000000       0.021
   0.25000000  0.16666667  0.50000000       0.042
   0.33333333  0.16666667  0.50000000       0.042
   0.41666667  0.16666667  0.50000000       0.021
   0.25000000  0.25000000  0.50000000       0.021
   0.33333333  0.25000000  0.50000000       0.042
   0.33333333  0.33333333  0.50000000       0.007
   0.00000000  0.00000000  0.00000000       0.000
   0.01785714  0.00000000  0.00000000       0.000
   0.03571429  0.00000000  0.00000000       0.000
   0.05357143  0.00000000  0.00000000       0.000
   0.07142857  0.00000000  0.00000000       0.000
   0.08928571  0.00000000  0.00000000       0.000
   0.10714286  0.00000000  0.00000000       0.000
   0.12500000  0.00000000  0.00000000       0.000
   0.14285714  0.00000000  0.00000000       0.000
   0.16071429  0.00000000  0.00000000       0.000
   0.17857143  0.00000000  0.00000000       0.000
   0.19642857  0.00000000  0.00000000       0.000
   0.21428571  0.00000000  0.00000000       0.000
   0.23214286  0.00000000  0.00000000       0.000
   0.25000000  0.00000000  0.00000000       0.000
   0.26785714  0.00000000  0.00000000       0.000
   0.28571429  0.00000000  0.00000000       0.000
   0.30357143  0.00000000  0.00000000       0.000
   0.32142857  0.00000000  0.00000000       0.000
   0.33928571  0.00000000  0.00000000       0.000
   0.35714286  0.00000000  0.00000000       0.000
   0.37500000  0.00000000  0.00000000       0.000
   0.39285714  0.00000000  0.00000000       0.000
   0.41071429  0.00000000  0.00000000       0.000
   0.42857143  0.00000000  0.00000000       0.000
   0.44642857  0.00000000  0.00000000       0.000
   0.46428571  0.00000000  0.00000000       0.000
   0.48214286  0.00000000  0.00000000       0.000
   0.50000000  0.00000000  0.00000000       0.000
   0.50000000  0.00000000  0.00000000       0.000
   0.48888889  0.02222222  0.00000000       0.000
   0.47777778  0.04444444  0.00000000       0.000
   0.46666667  0.06666667  0.00000000       0.000
   0.45555556  0.08888889  0.00000000       0.000
   0.44444444  0.11111111  0.00000000       0.000
   0.43333333  0.13333333  0.00000000       0.000
   0.42222222  0.15555556  0.00000000       0.000
   0.41111111  0.17777778  0.00000000       0.000
   0.40000000  0.20000000  0.00000000       0.000
   0.38888889  0.22222222  0.00000000       0.000
   0.37777778  0.24444444  0.00000000       0.000
   0.36666667  0.26666667  0.00000000       0.000
   0.35555556  0.28888889  0.00000000       0.000
   0.34444444  0.31111111  0.00000000       0.000
   0.33333333  0.33333333  0.00000000       0.000
   0.33333333  0.33333333  0.00000000       0.000
   0.32291667  0.32291667  0.00000000       0.000
   0.31250000  0.31250000  0.00000000       0.000
   0.30208333  0.30208333  0.00000000       0.000
   0.29166667  0.29166667  0.00000000       0.000
   0.28125000  0.28125000  0.00000000       0.000
   0.27083333  0.27083333  0.00000000       0.000
   0.26041667  0.26041667  0.00000000       0.000
   0.25000000  0.25000000  0.00000000       0.000
   0.23958333  0.23958333  0.00000000       0.000
   0.22916667  0.22916667  0.00000000       0.000
   0.21875000  0.21875000  0.00000000       0.000
   0.20833333  0.20833333  0.00000000       0.000
   0.19791667  0.19791667  0.00000000       0.000
   0.18750000  0.18750000  0.00000000       0.000
   0.17708333  0.17708333  0.00000000       0.000
   0.16666667  0.16666667  0.00000000       0.000
   0.15625000  0.15625000  0.00000000       0.000
   0.14583333  0.14583333  0.00000000       0.000
   0.13541667  0.13541667  0.00000000       0.000
   0.12500000  0.12500000  0.00000000       0.000
   0.11458333  0.11458333  0.00000000       0.000
   0.10416667  0.10416667  0.00000000       0.000
   0.09375000  0.09375000  0.00000000       0.000
   0.08333333  0.08333333  0.00000000       0.000
   0.07291667  0.07291667  0.00000000       0.000
   0.06250000  0.06250000  0.00000000       0.000
   0.05208333  0.05208333  0.00000000       0.000
   0.04166667  0.04166667  0.00000000       0.000
   0.03125000  0.03125000  0.00000000       0.000
   0.02083333  0.02083333  0.00000000       0.000
   0.01041667  0.01041667  0.00000000       0.000
   0.00000000  0.00000000  0.00000000       0.000
   0.00000000  0.00000000  0.00000000       0.000
   0.00000000  0.00000000  0.12500000       0.000
   0.00000000  0.00000000  0.25000000       0.000
   0.00000000  0.00000000  0.37500000       0.000
   0.00000000  0.00000000  0.50000000       0.000
   0.00000000  0.00000000  0.50000000       0.000
   0.01785714  0.00000000  0.50000000       0.000
   0.03571429  0.00000000  0.50000000       0.000
   0.05357143  0.00000000  0.50000000       0.000
   0.07142857  0.00000000  0.50000000       0.000
   0.08928571  0.00000000  0.50000000       0.000
   0.10714286  0.00000000  0.50000000       0.000
   0.12500000  0.00000000  0.50000000       0.000
   0.14285714  0.00000000  0.50000000       0.000
   0.16071429  0.00000000  0.50000000       0.000
   0.17857143  0.00000000  0.50000000       0.000
   0.19642857  0.00000000  0.50000000       0.000
   0.21428571  0.00000000  0.50000000       0.000
   0.23214286  0.00000000  0.50000000       0.000
   0.25000000  0.00000000  0.50000000       0.000
   0.26785714  0.00000000  0.50000000       0.000
   0.28571429  0.00000000  0.50000000       0.000
   0.30357143  0.00000000  0.50000000       0.000
   0.32142857  0.00000000  0.50000000       0.000
   0.33928571  0.00000000  0.50000000       0.000
   0.35714286  0.00000000  0.50000000       0.000
   0.37500000  0.00000000  0.50000000       0.000
   0.39285714  0.00000000  0.50000000       0.000
   0.41071429  0.00000000  0.50000000       0.000
   0.42857143  0.00000000  0.50000000       0.000
   0.44642857  0.00000000  0.50000000       0.000
   0.46428571  0.00000000  0.50000000       0.000
   0.48214286  0.00000000  0.50000000       0.000
   0.50000000  0.00000000  0.50000000       0.000
   0.50000000  0.00000000  0.50000000       0.000
   0.48888889  0.02222222  0.50000000       0.000
   0.47777778  0.04444444  0.50000000       0.000
   0.46666667  0.06666667  0.50000000       0.000
   0.45555556  0.08888889  0.50000000       0.000
   0.44444444  0.11111111  0.50000000       0.000
   0.43333333  0.13333333  0.50000000       0.000
   0.42222222  0.15555556  0.50000000       0.000
   0.41111111  0.17777778  0.50000000       0.000
   0.40000000  0.20000000  0.50000000       0.000
   0.38888889  0.22222222  0.50000000       0.000
   0.37777778  0.24444444  0.50000000       0.000
   0.36666667  0.26666667  0.50000000       0.000
   0.35555556  0.28888889  0.50000000       0.000
   0.34444444  0.31111111  0.50000000       0.000
   0.33333333  0.33333333  0.50000000       0.000
   0.33333333  0.33333333  0.50000000       0.000
   0.32291667  0.32291667  0.50000000       0.000
   0.31250000  0.31250000  0.50000000       0.000
   0.30208333  0.30208333  0.50000000       0.000
   0.29166667  0.29166667  0.50000000       0.000
   0.28125000  0.28125000  0.50000000       0.000
   0.27083333  0.27083333  0.50000000       0.000
   0.26041667  0.26041667  0.50000000       0.000
   0.25000000  0.25000000  0.50000000       0.000
   0.23958333  0.23958333  0.50000000       0.000
   0.22916667  0.22916667  0.50000000       0.000
   0.21875000  0.21875000  0.50000000       0.000
   0.20833333  0.20833333  0.50000000       0.000
   0.19791667  0.19791667  0.50000000       0.000
   0.18750000  0.18750000  0.50000000       0.000
   0.17708333  0.17708333  0.50000000       0.000
   0.16666667  0.16666667  0.50000000       0.000
   0.15625000  0.15625000  0.50000000       0.000
   0.14583333  0.14583333  0.50000000       0.000
   0.13541667  0.13541667  0.50000000       0.000
   0.12500000  0.12500000  0.50000000       0.000
   0.11458333  0.11458333  0.50000000       0.000
   0.10416667  0.10416667  0.50000000       0.000
   0.09375000  0.09375000  0.50000000       0.000
   0.08333333  0.08333333  0.50000000       0.000
   0.07291667  0.07291667  0.50000000       0.000
   0.06250000  0.06250000  0.50000000       0.000
   0.05208333  0.05208333  0.50000000       0.000
   0.04166667  0.04166667  0.50000000       0.000
   0.03125000  0.03125000  0.50000000       0.000
   0.02083333  0.02083333  0.50000000       0.000
   0.01041667  0.01041667  0.50000000       0.000
   0.00000000  0.00000000  0.50000000       0.000
   0.50000000  0.00000000  0.50000000       0.000
   0.50000000  0.00000000  0.37500000       0.000
   0.50000000  0.00000000  0.25000000       0.000
   0.50000000  0.00000000  0.12500000       0.000
   0.50000000  0.00000000  0.00000000       0.000
   0.33333333  0.33333333  0.50000000       0.000
   0.33333333  0.33333333  0.37500000       0.000
   0.33333333  0.33333333  0.25000000       0.000
   0.33333333  0.33333333  0.12500000       0.000
   0.33333333  0.33333333  0.00000000       0.000
 
 position of ions in fractional coordinates (direct lattice) 
   0.66666667  0.33333333  0.66701402
   0.33333333  0.66666667  0.16701402
   0.33333333  0.66666667  0.83349098
   0.66666667  0.33333333  0.33349098
   0.00000000  0.00000000  0.00027700
   0.00000000  0.00000000  0.50027700
   0.00000000  0.00000000  0.62564801
   0.00000000  0.00000000  0.12564801
   0.66666667  0.33333333  0.79199602
   0.33333333  0.66666667  0.29199602
   0.33333333  0.66666667  0.95847402
   0.66666667  0.33333333  0.45847402
 
 position of ions in cartesian coordinates  (Angst):
   1.54744196  0.89341603 10.12829516
   0.00000000  1.78683206  2.53602962
   0.00000000  1.78683206 12.65616975
   1.54744196  0.89341603  5.06390421
   0.00000000  0.00000000  0.00420618
   0.00000000  0.00000000  7.59647171
   0.00000000  0.00000000  9.50017165
   0.00000000  0.00000000  1.90790611
   1.54744196  0.89341603 12.02608821
   0.00000000  1.78683206  4.43382267
   0.00000000  1.78683206 14.55397850
   1.54744196  0.89341603  6.96171296
 


--------------------------------------------------------------------------------------------------------


 k-point  1 :   0.0000 0.0000 0.0000  plane waves:    2233
 k-point  2 :   0.0833 0.0000 0.0000  plane waves:    2247
 k-point  3 :   0.1667 0.0000 0.0000  plane waves:    2253
 k-point  4 :   0.2500 0.0000 0.0000  plane waves:    2281
 k-point  5 :   0.3333 0.0000 0.0000  plane waves:    2269
 k-point  6 :   0.4167 0.0000 0.0000  plane waves:    2290
 k-point  7 :   0.5000 0.0000 0.0000  plane waves:    2306
 k-point  8 :   0.0833 0.0833 0.0000  plane waves:    2267
 k-point  9 :   0.1667 0.0833 0.0000  plane waves:    2270
 k-point 10 :   0.2500 0.0833 0.0000  plane waves:    2290
 k-point 11 :   0.3333 0.0833 0.0000  plane waves:    2283
 k-point 12 :   0.4167 0.0833 0.0000  plane waves:    2300
 k-point 13 :   0.1667 0.1667 0.0000  plane waves:    2289
 k-point 14 :   0.2500 0.1667 0.0000  plane waves:    2305
 k-point 15 :   0.3333 0.1667 0.0000  plane waves:    2296
 k-point 16 :   0.4167 0.1667 0.0000  plane waves:    2309
 k-point 17 :   0.2500 0.2500 0.0000  plane waves:    2289
 k-point 18 :   0.3333 0.2500 0.0000  plane waves:    2313
 k-point 19 :   0.3333 0.3333 0.0000  plane waves:    2307
 k-point 20 :   0.0000 0.0000 0.5000  plane waves:    2258
 k-point 21 :   0.0833 0.0000 0.5000  plane waves:    2254
 k-point 22 :   0.1667 0.0000 0.5000  plane waves:    2260
 k-point 23 :   0.2500 0.0000 0.5000  plane waves:    2272
 k-point 24 :   0.3333 0.0000 0.5000  plane waves:    2282
 k-point 25 :   0.4167 0.0000 0.5000  plane waves:    2292
 k-point 26 :   0.5000 0.0000 0.5000  plane waves:    2288
 k-point 27 :   0.0833 0.0833 0.5000  plane waves:    2260
 k-point 28 :   0.1667 0.0833 0.5000  plane waves:    2268
 k-point 29 :   0.2500 0.0833 0.5000  plane waves:    2288
 k-point 30 :   0.3333 0.0833 0.5000  plane waves:    2296
 k-point 31 :   0.4167 0.0833 0.5000  plane waves:    2286
 k-point 32 :   0.1667 0.1667 0.5000  plane waves:    2288
 k-point 33 :   0.2500 0.1667 0.5000  plane waves:    2300
 k-point 34 :   0.3333 0.1667 0.5000  plane waves:    2308
 k-point 35 :   0.4167 0.1667 0.5000  plane waves:    2296
 k-point 36 :   0.2500 0.2500 0.5000  plane waves:    2304
 k-point 37 :   0.3333 0.2500 0.5000  plane waves:    2302
 k-point 38 :   0.3333 0.3333 0.5000  plane waves:    2316
 k-point 39 :   0.0000 0.0000 0.0000  plane waves:    2233
 k-point 40 :   0.0179 0.0000 0.0000  plane waves:    2231
 k-point 41 :   0.0357 0.0000 0.0000  plane waves:    2243
 k-point 42 :   0.0536 0.0000 0.0000  plane waves:    2247
 k-point 43 :   0.0714 0.0000 0.0000  plane waves:    2247
 k-point 44 :   0.0893 0.0000 0.0000  plane waves:    2253
 k-point 45 :   0.1071 0.0000 0.0000  plane waves:    2259
 k-point 46 :   0.1250 0.0000 0.0000  plane waves:    2255
 k-point 47 :   0.1429 0.0000 0.0000  plane waves:    2257
 k-point 48 :   0.1607 0.0000 0.0000  plane waves:    2265
 k-point 49 :   0.1786 0.0000 0.0000  plane waves:    2257
 k-point 50 :   0.1964 0.0000 0.0000  plane waves:    2263
 k-point 51 :   0.2143 0.0000 0.0000  plane waves:    2265
 k-point 52 :   0.2321 0.0000 0.0000  plane waves:    2275
 k-point 53 :   0.2500 0.0000 0.0000  plane waves:    2281
 k-point 54 :   0.2679 0.0000 0.0000  plane waves:    2277
 k-point 55 :   0.2857 0.0000 0.0000  plane waves:    2289
 k-point 56 :   0.3036 0.0000 0.0000  plane waves:    2285
 k-point 57 :   0.3214 0.0000 0.0000  plane waves:    2273
 k-point 58 :   0.3393 0.0000 0.0000  plane waves:    2271
 k-point 59 :   0.3571 0.0000 0.0000  plane waves:    2277
 k-point 60 :   0.3750 0.0000 0.0000  plane waves:    2274
 k-point 61 :   0.3929 0.0000 0.0000  plane waves:    2284
 k-point 62 :   0.4107 0.0000 0.0000  plane waves:    2290
[...]
     12      -0.2116      2.00000
     13       2.7172      2.00000
     14       2.8319      2.00000
     15       3.7047      2.00000
     16       3.7281      2.00000
     17       3.9192      2.00000
     18       4.0330      2.00000
     19       4.6726      2.00000
     20       4.9603      2.00000
     21       5.3908      2.00000
     22       5.5933      2.00000
     23       5.8339      2.00000
     24       6.0400      2.00000
     25      10.3318      0.00000
     26      10.4221      0.00000
     27      11.7158      0.00000
     28      11.9132      0.00000
     29      13.1304      0.00000
     30      13.4008      0.00000
     31      13.7561      0.00000
     32      14.1599      0.00000
     33      15.2448      0.00000
     34      15.4785      0.00000
     35      16.0499      0.00000
     36      16.2410      0.00000

 k-point   202 :       0.5000    0.0000    0.2500
  band No.  band energies     occupation 
      1      -5.8482      2.00000
      2      -5.7275      2.00000
      3      -5.4038      2.00000
      4      -5.0620      2.00000
      5      -4.6296      2.00000
      6      -4.3231      2.00000
      7      -1.8160      2.00000
      8      -1.6213      2.00000
      9      -1.0334      2.00000
     10      -0.9122      2.00000
     11      -0.3035      2.00000
     12      -0.0653      2.00000
     13       2.5576      2.00000
     14       2.7295      2.00000
     15       3.8744      2.00000
     16       3.8833      2.00000
     17       3.8966      2.00000
     18       4.1098      2.00000
     19       4.5395      2.00000
     20       5.1114      2.00000
     21       5.2191      2.00000
     22       5.6170      2.00000
     23       5.7052      2.00000
     24       6.1091      2.00000
     25      10.3138      0.00000
     26      10.4731      0.00000
     27      11.6451      0.00000
     28      12.0542      0.00000
     29      13.0749      0.00000
     30      13.3706      0.00000
     31      13.7057      0.00000
     32      14.1588      0.00000
     33      15.2916      0.00000
     34      15.4034      0.00000
     35      15.8987      0.00000
     36      16.2320      0.00000

 k-point   203 :       0.5000    0.0000    0.1250
  band No.  band energies     occupation 
      1      -5.8606      2.00000
      2      -5.6918      2.00000
      3      -5.4606      2.00000
      4      -4.9675      2.00000
      5      -4.7247      2.00000
      6      -4.2891      2.00000
      7      -1.8101      2.00000
      8      -1.5230      2.00000
      9      -1.1289      2.00000
     10      -1.0556      2.00000
     11      -0.2182      2.00000
     12       0.0412      2.00000
     13       2.4358      2.00000
     14       2.6311      2.00000
     15       3.8619      2.00000
     16       3.9952      2.00000
     17       4.1056      2.00000
     18       4.1994      2.00000
     19       4.4160      2.00000
     20       5.0418      2.00000
     21       5.2643      2.00000
     22       5.5651      2.00000
     23       5.6122      2.00000
     24       6.1521      2.00000
     25      10.3111      0.00000
     26      10.5091      0.00000
     27      11.5946      0.00000
     28      12.2086      0.00000
     29      13.0646      0.00000
     30      13.1373      0.00000
     31      13.8848      0.00000
     32      14.0786      0.00000
     33      15.1876      0.00000
     34      15.4082      0.00000
     35      15.8076      0.00000
     36      16.3782      0.00000

 k-point   204 :       0.5000    0.0000    0.0000
  band No.  band energies     occupation 
      1      -5.8648      2.00000
      2      -5.6749      2.00000
      3      -5.4846      2.00000
      4      -4.9073      2.00000
      5      -4.7854      2.00000
      6      -4.2776      2.00000
      7      -1.8051      2.00000
      8      -1.4676      2.00000
      9      -1.1648      2.00000
     10      -1.1282      2.00000
     11      -0.1849      2.00000
     12       0.0802      2.00000
     13       2.3906      2.00000
     14       2.5924      2.00000
     15       3.8546      2.00000
     16       4.0414      2.00000
     17       4.2080      2.00000
     18       4.2900      2.00000
     19       4.3138      2.00000
     20       4.9518      2.00000
     21       5.4061      2.00000
     22       5.4273      2.00000
     23       5.6050      2.00000
     24       6.1664      2.00000
     25      10.3120      0.00000
     26      10.5218      0.00000
     27      11.5756      0.00000
     28      12.2916      0.00000
     29      13.0210      0.00000
     30      13.0674      0.00000
     31      13.9776      0.00000
     32      14.0371      0.00000
     33      15.0767      0.00000
     34      15.4608      0.00000
     35      15.7767      0.00000
     36      16.4525      0.00000

 k-point   205 :       0.3333    0.3333    0.5000
  band No.  band energies     occupation 
      1      -4.7214      2.00000
      2      -4.7214      2.00000
      3      -4.5763      2.00000
      4      -4.5763      2.00000
      5      -4.5503      2.00000
      6      -4.5503      2.00000
      7      -0.7497      2.00000
      8      -0.7497      2.00000
      9      -0.5593      2.00000
     10      -0.5593      2.00000
     11      -0.1400      2.00000
     12      -0.1400      2.00000
     13       1.1128      2.00000
     14       1.1128      2.00000
     15       1.7031      2.00000
     16       1.7031      2.00000
     17       2.1611      2.00000
     18       2.1611      2.00000
     19       4.0841      2.00000
     20       4.0841      2.00000
     21       4.5351      2.00000
     22       4.5351      2.00000
     23       4.9388      2.00000
     24       4.9388      2.00000
     25      12.0506      0.00000
     26      12.0506      0.00000
     27      12.7769      0.00000
     28      12.7769      0.00000
     29      13.9664      0.00000
     30      13.9664      0.00000
     31      15.9948      0.00000
     32      15.9948      0.00000
     33      17.2904      0.00000
     34      17.2910      0.00000
     35      18.0443      0.00000
     36      18.0462      0.00000

 k-point   206 :       0.3333    0.3333    0.3750
  band No.  band energies     occupation 
      1      -4.7214      2.00000
      2      -4.7214      2.00000
      3      -4.5793      2.00000
      4      -4.5733      2.00000
      5      -4.5503      2.00000
      6      -4.5503      2.00000
      7      -0.7551      2.00000
      8      -0.7551      2.00000
      9      -0.6191      2.00000
     10      -0.4934      2.00000
     11      -0.1241      2.00000
     12      -0.1241      2.00000
     13       1.0789      2.00000
     14       1.0789      2.00000
     15       1.5327      2.00000
     16       1.8829      2.00000
     17       2.2034      2.00000
     18       2.2034      2.00000
     19       4.0346      2.00000
     20       4.0346      2.00000
     21       4.3487      2.00000
     22       4.7084      2.00000
     23       4.9723      2.00000
     24       4.9723      2.00000
     25      12.0193      0.00000
     26      12.0193      0.00000
     27      12.5336      0.00000
     28      13.0443      0.00000
     29      14.0479      0.00000
     30      14.0479      0.00000
     31      15.9125      0.00000
     32      15.9125      0.00000
     33      16.9986      0.00000
     34      17.5414      0.00000
     35      18.0297      0.00000
     36      18.0321      0.00000

 k-point   207 :       0.3333    0.3333    0.2500
  band No.  band energies     occupation 
      1      -4.7215      2.00000
      2      -4.7215      2.00000
      3      -4.5818      2.00000
      4      -4.5707      2.00000
      5      -4.5501      2.00000
      6      -4.5501      2.00000
      7      -0.7676      2.00000
      8      -0.7676      2.00000
      9      -0.6661      2.00000
     10      -0.4314      2.00000
     11      -0.0848      2.00000
     12      -0.0848      2.00000
     13       1.0014      2.00000
     14       1.0014      2.00000
     15       1.3912      2.00000
     16       2.0497      2.00000
     17       2.3032      2.00000
     18       2.3032      2.00000
     19       3.9217      2.00000
     20       3.9217      2.00000
     21       4.1746      2.00000
     22       4.8484      2.00000
     23       5.0426      2.00000
     24       5.0426      2.00000
     25      11.9494      0.00000
     26      11.9494      0.00000
     27      12.3403      0.00000
     28      13.2995      0.00000
     29      14.2654      0.00000
     30      14.2654      0.00000
     31      15.6911      0.00000
     32      15.6911      0.00000
     33      16.7174      0.00000
     34      17.7232      0.00000
     35      18.0049      0.00000
     36      18.0086      0.00000

 k-point   208 :       0.3333    0.3333    0.1250
  band No.  band energies     occupation 
      1      -4.7216      2.00000
      2      -4.7216      2.00000
      3      -4.5835      2.00000
      4      -4.5690      2.00000
      5      -4.5500      2.00000
      6      -4.5500      2.00000
      7      -0.7791      2.00000
      8      -0.7791      2.00000
      9      -0.6958      2.00000
     10      -0.3858      2.00000
     11      -0.0433      2.00000
     12      -0.0433      2.00000
     13       0.9275      2.00000
     14       0.9275      2.00000
     15       1.2964      2.00000
     16       2.1729      2.00000
     17       2.4031      2.00000
     18       2.4031      2.00000
     19       3.8116      2.00000
     20       3.8116      2.00000
     21       4.0453      2.00000
     22       4.9394      2.00000
     23       5.1029      2.00000
     24       5.1029      2.00000
     25      11.8858      0.00000
     26      11.8858      0.00000
     27      12.2163      0.00000
     28      13.4919      0.00000
     29      14.5564      0.00000
     30      14.5564      0.00000
     31      15.3937      0.00000
     32      15.3937      0.00000
     33      16.5018      0.00000
     34      17.8285      0.00000
     35      17.9849      0.00000
     36      17.9872      0.00000

 k-point   209 :       0.3333    0.3333    0.0000
  band No.  band energies     occupation 
      1      -4.7216      2.00000
      2      -4.7216      2.00000
      3      -4.5841      2.00000
      4      -4.5684      2.00000
      5      -4.5499      2.00000
      6      -4.5499      2.00000
      7      -0.7837      2.00000
      8      -0.7837      2.00000
      9      -0.7060      2.00000
     10      -0.3689      2.00000
     11      -0.0253      2.00000
     12      -0.0252      2.00000
     13       0.8972      2.00000
     14       0.8973      2.00000
     15       1.2628      2.00000
     16       2.2194      2.00000
     17       2.4455      2.00000
     18       2.4455      2.00000
     19       3.7655      2.00000
     20       3.7655      2.00000
     21       3.9965      2.00000
     22       4.9711      2.00000
     23       5.1259      2.00000
     24       5.1259      2.00000
     25      11.8610      0.00000
     26      11.8610      0.00000
     27      12.1735      0.00000
     28      13.5655      0.00000
     29      14.7626      0.00000
     30      14.7626      0.00000
     31      15.1847      0.00000
     32      15.1847      0.00000
     33      16.4198      0.00000
     34      17.8606      0.00000
     35      17.9782      0.00000
     36      17.9796      0.00000


--------------------------------------------------------------------------------------------------------


 soft charge-density along one line, spin component           1
         0         1         2         3         4         5         6         7         8         9
 total charge-density along one line
 
 pseudopotential strength for first ion, spin component:           1
 17.521  24.445  -0.000  -0.001   0.000  -0.000  -0.001   0.000
 24.445  34.109  -0.000  -0.001   0.000  -0.000  -0.002   0.000
 -0.000  -0.000   4.019  -0.000   0.000   7.489  -0.000   0.000
 -0.001  -0.001  -0.000   4.019   0.000  -0.000   7.490   0.000
  0.000   0.000   0.000   0.000   4.019   0.000   0.000   7.489
 -0.000  -0.000   7.489  -0.000   0.000  13.967  -0.000   0.000
 -0.001  -0.002  -0.000   7.490   0.000  -0.000  13.968   0.000
  0.000   0.000   0.000   0.000   7.489   0.000   0.000  13.967
 total augmentation occupancy for first ion, spin component:           1
 13.572  -6.895  -0.000  -0.026   0.000  -0.000   0.017  -0.000
 -6.895   3.578   0.000   0.010  -0.000  -0.000  -0.008   0.000
 -0.000   0.000   4.819  -0.000   0.000  -1.435   0.000  -0.000
 -0.026   0.010  -0.000   4.970  -0.000   0.000  -1.504   0.000
  0.000  -0.000   0.000  -0.000   4.819  -0.000   0.000  -1.435
 -0.000  -0.000  -1.435   0.000  -0.000   0.439  -0.000   0.000
  0.017  -0.008   0.000  -1.504   0.000  -0.000   0.467  -0.000
 -0.000   0.000  -0.000   0.000  -1.435   0.000  -0.000   0.439


------------------------ aborting loop because EDIFF is reached ----------------------------------------


 


 total charge     
 
# of ion       s       p       d       tot
------------------------------------------
    1        0.716   0.969   0.000   1.685
    2        0.716   0.969   0.000   1.685
    3        0.716   0.975   0.000   1.691
    4        0.716   0.975   0.000   1.691
    5        0.718   0.976   0.000   1.694
    6        0.718   0.976   0.000   1.694
    7        0.863   1.698   0.000   2.561
    8        0.863   1.698   0.000   2.561
    9        0.843   1.697   0.000   2.540
   10        0.843   1.697   0.000   2.540
   11        0.844   1.697   0.000   2.541
   12        0.844   1.697   0.000   2.541
--------------------------------------------------
tot          9.399  16.025   0.000  25.424
 
    FORLOC:  cpu time    0.0017: real time    0.0017
    FORHF :  cpu time 6138.0349: real time 6136.3563
    FORNL :  cpu time    1.0577: real time    2.1300
    FORCOR:  cpu time    0.1542: real time    0.1543
    OFIELD:  cpu time    0.0001: real time    0.0001

 VOLUME and BASIS-vectors are now :
 -----------------------------------------------------------------------------
  energy-cutoff  :      400.00
  volume of cell :      125.96
      direct lattice vectors                 reciprocal lattice vectors
     3.094883919  0.000000000  0.000000000     0.323113896  0.186549895  0.000000000
    -1.547441959  2.680248095  0.000000000     0.000000000  0.373099789  0.000000000
     0.000000000  0.000000000 15.184531076     0.000000000  0.000000000  0.065856495

  length of vectors
     3.094883919  3.094883919 15.184531076     0.373099789  0.373099789  0.065856495


 FORCES acting on ions:
    Electron-Ion                     Ewald-Force                    Non-Local-Force
 -----------------------------------------------------------------------------------------------
   0.924E-06 0.905E-06 -.259E+00   0.292E-11 -.188E-11 0.472E+00   -.971E-16 0.000E+00 -.425E+00
   -.755E-06 -.613E-06 -.259E+00   -.292E-11 0.189E-11 0.472E+00   0.971E-16 -.139E-16 -.425E+00
   0.179E-05 0.517E-06 -.684E+00   -.566E-11 0.306E-11 0.513E+00   0.971E-16 0.694E-16 0.325E+00
   -.149E-05 -.239E-06 -.684E+00   0.566E-11 -.306E-11 0.513E+00   -.555E-16 -.555E-16 0.325E+00
   0.448E-06 0.122E-05 -.974E+00   0.279E-11 -.183E-11 0.807E+00   -.833E-16 -.555E-16 0.237E+00
   -.255E-06 -.898E-06 -.974E+00   -.278E-11 0.182E-11 0.807E+00   0.971E-16 0.833E-16 0.237E+00
   -.830E-06 0.416E-07 0.131E+01   -.283E-11 0.185E-11 -.117E+01   0.911E-17 0.304E-17 -.599E+00
   0.514E-06 -.414E-06 0.131E+01   0.283E-11 -.186E-11 -.117E+01   -.997E-17 -.520E-17 -.599E+00
   0.440E-06 -.100E-05 -.239E+00   0.566E-11 -.306E-11 0.748E-01   0.278E-16 0.208E-16 -.559E+00
   -.992E-06 0.337E-06 -.239E+00   -.566E-11 0.306E-11 0.748E-01   -.486E-16 -.139E-16 -.559E+00
   -.329E-05 0.170E-05 0.563E+00   -.288E-11 0.186E-11 -.700E+00   -.347E-16 0.278E-16 0.567E+00
   0.322E-05 -.170E-05 0.563E+00   0.288E-11 -.186E-11 -.700E+00   0.278E-16 -.278E-16 0.567E+00
 -----------------------------------------------------------------------------------------------
   -.258E-06 -.110E-06 -.587E+00   -.238E-14 0.787E-14 -.373E-13   0.269E-16 0.325E-16 -.909E+00
 
 
 POSITION                                       TOTAL-FORCE (eV/Angst)
 -----------------------------------------------------------------------------------
      1.54744      0.89342     10.12830         0.000000     -0.000000     -0.084870
      0.00000      1.78683      2.53603        -0.000000      0.000000     -0.084870
      0.00000      1.78683     12.65617         0.000000     -0.000000      0.268968
      1.54744      0.89342      5.06390        -0.000000      0.000000      0.268968
      0.00000      0.00000      0.00421         0.000000      0.000000      0.184131
      0.00000      0.00000      7.59647        -0.000000      0.000000      0.184131
      0.00000      0.00000      9.50017         0.000000      0.000000     -0.337930
      0.00000      0.00000      1.90791        -0.000000      0.000000     -0.337930
      1.54744      0.89342     12.02609        -0.000000      0.000000     -0.611217
      0.00000      1.78683      4.43382         0.000000     -0.000000     -0.611217
      0.00000      1.78683     14.55398        -0.000000      0.000000      0.580919
      1.54744      0.89342      6.96171         0.000000     -0.000000      0.580919
 -----------------------------------------------------------------------------------
    total drift:                               -0.000000     -0.000000     -1.417907


--------------------------------------------------------------------------------------------------------



  FREE ENERGIE OF THE ION-ELECTRON SYSTEM (eV)
  ---------------------------------------------------
  free  energy   TOTEN  =      -104.64903220 eV

  energy  without entropy=     -104.64903220  energy(sigma->0) =     -104.64903220
 


--------------------------------------------------------------------------------------------------------


    POTLOK:  cpu time    0.1521: real time    0.1520


--------------------------------------------------------------------------------------------------------


 writing wavefunctions
     LOOP+:  cpu time24069.7152: real time24119.7802
    4ORBIT:  cpu time    0.0000: real time    0.0000
 


 total charge     
 
# of ion       s       p       d       tot
------------------------------------------
    1        0.716   0.969   0.000   1.685
    2        0.716   0.969   0.000   1.685
    3        0.716   0.975   0.000   1.691
    4        0.716   0.975   0.000   1.691
    5        0.718   0.976   0.000   1.694
    6        0.718   0.976   0.000   1.694
    7        0.863   1.698   0.000   2.561
    8        0.863   1.698   0.000   2.561
    9        0.843   1.697   0.000   2.540
   10        0.843   1.697   0.000   2.540
   11        0.844   1.697   0.000   2.541
   12        0.844   1.697   0.000   2.541
--------------------------------------------------
tot          9.399  16.025   0.000  25.424
 

 total amount of memory used by VASP MPI-rank0   185250. kBytes
=======================================================================

   base      :      30000. kBytes
   nonlr-proj:       2535. kBytes
   fftplans  :       4207. kBytes
   grid      :       2558. kBytes
   one-center:         36. kBytes
   HF        :          9. kBytes
   wavefun   :     145905. kBytes
 
  
  
 General timing and accounting informations for this job:
 ========================================================
  
                  Total CPU time used (sec):    24446.904
                            User time (sec):    23043.500
                          System time (sec):     1403.405
                         Elapsed time (sec):    24498.953
  
                   Maximum memory used (kb):     1439116.
                   Average memory used (kb):           0.
  
                          Minor page faults:      1322339
                          Major page faults:            0
                 Voluntary context switches:       668576
