 vasp.5.4.4.18Apr17-6-g9f103f2a35 (build Jan 24 2022 14:21:27) complex          
  
 executed on             LinuxIFC date 2022.02.03  14:59:57
 running on    6 total cores
 distrk:  each k-point on    1 cores,    6 groups
 distr:  one band on NCORES_PER_BAND=   1 cores,    1 groups


--------------------------------------------------------------------------------------------------------


 INCAR:
 POTCAR:    PAW_PBE C 08Apr2002                   
 POTCAR:    PAW_PBE Si 05Jan2001                  

 ----------------------------------------------------------------------------- 
|                                                                             |
|           W    W    AA    RRRRR   N    N  II  N    N   GGGG   !!!           |
|           W    W   A  A   R    R  NN   N  II  NN   N  G    G  !!!           |
|           W    W  A    A  R    R  N N  N  II  N N  N  G       !!!           |
|           W WW W  AAAAAA  RRRRR   N  N N  II  N  N N  G  GGG   !            |
|           WW  WW  A    A  R   R   N   NN  II  N   NN  G    G                |
|           W    W  A    A  R    R  N    N  II  N    N   GGGG   !!!           |
|                                                                             |
|      For optimal performance we recommend to set                            |
|        NCORE= 4 - approx SQRT( number of cores)                             |
|      NCORE specifies how many cores store one orbital (NPAR=cpu/NCORE).     |
|      This setting can  greatly improve the performance of VASP for DFT.     |
|      The default,   NCORE=1            might be grossly inefficient         |
|      on modern multi-core architectures or massively parallel machines.     |
|      Do your own testing !!!!                                               |
|      Unfortunately you need to use the default for GW and RPA calculations. |
|      (for HF NCORE is supported but not extensively tested yet)             |
|                                                                             |
 ----------------------------------------------------------------------------- 


 ----------------------------------------------------------------------------- 
|                                                                             |
|           W    W    AA    RRRRR   N    N  II  N    N   GGGG   !!!           |
|           W    W   A  A   R    R  NN   N  II  NN   N  G    G  !!!           |
|           W    W  A    A  R    R  N N  N  II  N N  N  G       !!!           |
|           W WW W  AAAAAA  RRRRR   N  N N  II  N  N N  G  GGG   !            |
|           WW  WW  A    A  R   R   N   NN  II  N   NN  G    G                |
|           W    W  A    A  R    R  N    N  II  N    N   GGGG   !!!           |
|                                                                             |
|      You have enabled k-point parallelism (KPAR>1).                         |
|      This developmental code was originally  written by Paul Kent at ORNL,  |
|      and carefully double checked in Vienna.                                |
|      GW as well as linear response parallelism added by Martijn Marsman     |
|      and Georg Kresse.                                                      |
|      Carefully verify results versus KPAR=1.                                |
|      Report problems to Paul Kent and Vienna.                               |
|                                                                             |
 ----------------------------------------------------------------------------- 

 POTCAR:    PAW_PBE C 08Apr2002                   
   VRHFIN =C: s2p2                                                              
   LEXCH  = PE                                                                  
   EATOM  =   147.1560 eV,   10.8157 Ry                                         
                                                                                
   TITEL  = PAW_PBE C 08Apr2002                                                 
   LULTRA =        F    use ultrasoft PP ?                                      
   IUNSCR =        1    unscreen: 0-lin 1-nonlin 2-no                           
   RPACOR =    1.200    partial core radius                                     
   POMASS =   12.011; ZVAL   =    4.000    mass and valenz                      
   RCORE  =    1.500    outmost cutoff radius                                   
   RWIGS  =    1.630; RWIGS  =    0.863    wigner-seitz radius (au A)           
   ENMAX  =  400.000; ENMIN  =  300.000 eV                                      
   ICORE  =        2    local potential                                         
   LCOR   =        T    correct aug charges                                     
   LPAW   =        T    paw PP                                                  
   EAUG   =  644.873                                                            
   DEXC   =    0.000                                                            
   RMAX   =    1.529    core radius for proj-oper                               
   RAUG   =    1.300    factor for augmentation sphere                          
   RDEP   =    1.501    radius for radial grids                                 
   RDEPT  =    1.300    core radius for aug-charge                              
                                                                                
   Atomic configuration                                                         
    4 entries                                                                   
     n  l   j            E        occ.                                          
     1  0  0.50      -273.3789   2.0000                                         
     2  0  0.50       -13.7508   2.0000                                         
     2  1  0.50        -5.2854   2.0000                                         
     3  2  1.50        -5.4423   0.0000                                         
   Description                                                                  
     l       E           TYP  RCUT    TYP  RCUT                                 
     0    -13.7508458     23  1.200                                             
     0     -8.2022199     23  1.200                                             
     1     -5.2854383     23  1.500                                             
     1     34.0145650     23  1.500                                             
     2     -5.4423304      7  1.500                                             
  local pseudopotential read in
  partial core-charges read in
  partial kinetic energy density read in
  atomic valenz-charges read in
  non local Contribution for L=           0  read in
    real space projection operators read in
  non local Contribution for L=           0  read in
    real space projection operators read in
  non local Contribution for L=           1  read in
    real space projection operators read in
  non local Contribution for L=           1  read in
    real space projection operators read in
    PAW grid and wavefunctions read in
 
   number of l-projection  operators is LMAX  =           4
   number of lm-projection operators is LMMAX =           8
 
 POTCAR:    PAW_PBE Si 05Jan2001                  
   VRHFIN =Si: s2p2                                                             
   LEXCH  = PE                                                                  
   EATOM  =   103.0669 eV,    7.5752 Ry                                         
                                                                                
   TITEL  = PAW_PBE Si 05Jan2001                                                
   LULTRA =        F    use ultrasoft PP ?                                      
   IUNSCR =        1    unscreen: 0-lin 1-nonlin 2-no                           
   RPACOR =    1.500    partial core radius                                     
   POMASS =   28.085; ZVAL   =    4.000    mass and valenz                      
   RCORE  =    1.900    outmost cutoff radius                                   
   RWIGS  =    2.480; RWIGS  =    1.312    wigner-seitz radius (au A)           
   ENMAX  =  245.345; ENMIN  =  184.009 eV                                      
   ICORE  =        2    local potential                                         
   LCOR   =        T    correct aug charges                                     
   LPAW   =        T    paw PP                                                  
   EAUG   =  322.069                                                            
   DEXC   =    0.000                                                            
   RMAX   =    1.950    core radius for proj-oper                               
   RAUG   =    1.300    factor for augmentation sphere                          
   RDEP   =    1.993    radius for radial grids                                 
   RDEPT  =    1.837    core radius for aug-charge                              
                                                                                
   Atomic configuration                                                         
    6 entries                                                                   
     n  l   j            E        occ.                                          
     1  0  0.50     -1785.8828   2.0000                                         
     2  0  0.50      -139.4969   2.0000                                         
     2  1  1.50       -95.5546   6.0000                                         
     3  0  0.50       -10.8127   2.0000                                         
     3  1  0.50        -4.0811   2.0000                                         
     3  2  1.50        -4.0817   0.0000                                         
   Description                                                                  
     l       E           TYP  RCUT    TYP  RCUT                                 
     0    -10.8127223     23  1.900                                             
     0     -7.6451159     23  1.900                                             
     1     -4.0811372     23  1.900                                             
     1      2.4879257     23  1.900                                             
     2     -4.0817478      7  1.900                                             
  local pseudopotential read in
  partial core-charges read in
  partial kinetic energy density read in
  atomic valenz-charges read in
  non local Contribution for L=           0  read in
    real space projection operators read in
  non local Contribution for L=           0  read in
    real space projection operators read in
  non local Contribution for L=           1  read in
    real space projection operators read in
  non local Contribution for L=           1  read in
    real space projection operators read in
    PAW grid and wavefunctions read in
 
   number of l-projection  operators is LMAX  =           4
   number of lm-projection operators is LMMAX =           8
 

 ----------------------------------------------------------------------------- 
|                                                                             |
|  ADVICE TO THIS USER RUNNING 'VASP/VAMP'   (HEAR YOUR MASTER'S VOICE ...):  |
|                                                                             |
|      You have a (more or less) 'small supercell' and for smaller cells      |
|      it is recommended  to use the reciprocal-space projection scheme!      |
|      The real space optimization is not  efficient for small cells and it   |
|      is also less accurate ...                                              |
|      Therefore set LREAL=.FALSE. in the  INCAR file                         |
|                                                                             |
 ----------------------------------------------------------------------------- 


 ----------------------------------------------------------------------------- 
|                                                                             |
|           W    W    AA    RRRRR   N    N  II  N    N   GGGG   !!!           |
|           W    W   A  A   R    R  NN   N  II  NN   N  G    G  !!!           |
|           W    W  A    A  R    R  N N  N  II  N N  N  G       !!!           |
|           W WW W  AAAAAA  RRRRR   N  N N  II  N  N N  G  GGG   !            |
|           WW  WW  A    A  R   R   N   NN  II  N   NN  G    G                |
|           W    W  A    A  R    R  N    N  II  N    N   GGGG   !!!           |
|                                                                             |
|     The real-space-projection scheme for the treatment of the nonlocal      |
|     pseudopotentials has been switched on -- but on file POTCAR I have      |
|     not found any entries signalling me that you have ever performed a      |
|     real-space optimization of all nonlocal projectors! BE WARNED that      |
|     a calculation using the real-space-projection scheme together with      |
|     nonlocal projectors which were not real-space-optimized (according      |
|     to the plane-wave-cutoff used in this calculation) might give more      |
|     or less inaccurate results                                              |
|     I hope you know what you are doing                                      |
|                                                                             |
 ----------------------------------------------------------------------------- 

  PAW_PBE C 08Apr2002                   :
 energy of atom  1       EATOM= -147.1560
 kinetic energy error for atom=    0.0288 (will be added to EATOM!!)
  PAW_PBE Si 05Jan2001                  :
 energy of atom  2       EATOM= -103.0669
 kinetic energy error for atom=    0.0012 (will be added to EATOM!!)
 
 
 POSCAR: Primitive Cell                          
  positions in direct lattice
  No initial velocities read in
 exchange correlation table for  LEXCH =        8
   RHO(1)=    0.500       N(1)  =     2000
   RHO(2)=  100.500       N(2)  =     4000
 


--------------------------------------------------------------------------------------------------------


 ion  position               nearest neighbor table
   1  0.333  0.667  0.875-   4 1.89   4 1.89   4 1.89   3 1.91
   2  0.667  0.333  0.375-   3 1.89   3 1.89   3 1.89   4 1.91
   3  0.333  0.667  0.500-   2 1.89   2 1.89   2 1.89   1 1.91   4 3.10   4 3.10   4 3.10   4 3.10
                             4 3.10   4 3.10
   4  0.667  0.333  1.000-   1 1.89   1 1.89   1 1.89   2 1.91   3 3.10   3 3.10   3 3.10   3 3.10
                             3 3.10   3 3.10
 
  LATTYP: Found a hexagonal cell.
 ALAT       =     3.0919997625
 C/A-ratio  =     1.6406857664
  
  Lattice vectors:
  
 A1 = (   3.0919997625,   0.0000000000,   0.0000000000)
 A2 = (  -1.5459998812,   2.6777503428,   0.0000000000)
 A3 = (   0.0000000000,   0.0000000000,   5.0730000000)


Analysis of symmetry for initial positions (statically):
=====================================================================
 Subroutine PRICEL returns:
 Original cell was already a primitive cell.
 

 Routine SETGRP: Setting up the symmetry group for a 
 hexagonal supercell.


 Subroutine GETGRP returns: Found 12 space group operations
 (whereof  6 operations were pure point group operations)
 out of a pool of 24 trial point group operations.


The static configuration has the point symmetry C_3v.
 The point group associated with its full space group is C_6v.


Analysis of symmetry for dynamics (positions and initial velocities):
=====================================================================
 Subroutine PRICEL returns:
 Original cell was already a primitive cell.
 

 Routine SETGRP: Setting up the symmetry group for a 
 hexagonal supercell.


 Subroutine GETGRP returns: Found 12 space group operations
 (whereof  6 operations were pure point group operations)
 out of a pool of 24 trial point group operations.


The dynamic configuration has the point symmetry C_3v.
 The point group associated with its full space group is C_6v.


 Subroutine INISYM returns: Found 12 space group operations
 (whereof  6 operations are pure point group operations),
 and found     1 'primitive' translations

 
 
 KPOINTS: 0.040  12  12   5   57  0.040  201    9 
  k-points in reciprocal lattice
Space group operators:
 irot       det(A)        alpha          n_x          n_y          n_z        tau_x        tau_y        tau_z
    1     1.000000     0.000000     1.000000     0.000000     0.000000     0.000000     0.000000     0.000000
    2     1.000000   120.000000     0.000000     0.000000    -1.000000     0.000000     0.000000     0.000000
    3     1.000000   120.000000     0.000000     0.000000     1.000000     0.000000     0.000000     0.000000
    4    -1.000000   180.000000     1.000000     0.000000     0.000000     0.000000     0.000000     0.000000
    5    -1.000000   180.000000     0.500000    -0.866025     0.000000     0.000000     0.000000     0.000000
    6    -1.000000   180.000000    -0.500000    -0.866025     0.000000     0.000000     0.000000     0.000000
    7     1.000000    60.000000     0.000000     0.000000    -1.000000     0.000000     0.000000     0.500000
    8     1.000000   180.000000     0.000000     0.000000     1.000000     0.000000     0.000000     0.500000
    9     1.000000    60.000000     0.000000     0.000000     1.000000     0.000000     0.000000     0.500000
   10    -1.000000   180.000000     0.866025    -0.500000     0.000000     0.000000     0.000000     0.500000
   11    -1.000000   180.000000     0.000000     1.000000     0.000000     0.000000     0.000000     0.500000
   12    -1.000000   180.000000     0.866025     0.500000     0.000000     0.000000     0.000000     0.500000

 ----------------------------------------------------------------------------- 
|                                                                             |
|           W    W    AA    RRRRR   N    N  II  N    N   GGGG   !!!           |
|           W    W   A  A   R    R  NN   N  II  NN   N  G    G  !!!           |
|           W    W  A    A  R    R  N N  N  II  N N  N  G       !!!           |
|           W WW W  AAAAAA  RRRRR   N  N N  II  N  N N  G  GGG   !            |
|           WW  WW  A    A  R   R   N   NN  II  N   NN  G    G                |
|           W    W  A    A  R    R  N    N  II  N    N   GGGG   !!!           |
|                                                                             |
|      Your generating k-point grid is not commensurate to the symmetry       |
|      of the lattice.  This can cause   slow convergence with respect        |
|      to k-points for HF type calculations                                   |
|      suggested SOLUTIONS:                                                   |
|       ) if not already the case, use automatic k-point generation           |
|       ) shift your grid to Gamma (G) (e.g. required for hex or fcc lattice) |
|                                                                             |
 ----------------------------------------------------------------------------- 

 
 Subroutine IBZKPT_HF returns following result:
 ==============================================
 
 Found    921 k-points in 1st BZ
 the following    921 k-points will be used (e.g. in the exchange kernel)
 Following reciprocal coordinates:   # in IRBZ
  0.000000  0.000000  0.000000    0.00138889   1 t-inv F
  0.083333  0.000000  0.000000    0.00138889   2 t-inv F
  0.166667  0.000000  0.000000    0.00138889   3 t-inv F
  0.250000  0.000000  0.000000    0.00138889   4 t-inv F
  0.333333  0.000000  0.000000    0.00138889   5 t-inv F
  0.416667  0.000000  0.000000    0.00138889   6 t-inv F
  0.500000  0.000000  0.000000    0.00138889   7 t-inv F
  0.083333  0.083333  0.000000    0.00138889   8 t-inv F
  0.166667  0.083333  0.000000    0.00138889   9 t-inv F
  0.250000  0.083333  0.000000    0.00138889  10 t-inv F
  0.333333  0.083333  0.000000    0.00138889  11 t-inv F
  0.416667  0.083333  0.000000    0.00138889  12 t-inv F
  0.166667  0.166667  0.000000    0.00138889  13 t-inv F
  0.250000  0.166667  0.000000    0.00138889  14 t-inv F
  0.333333  0.166667  0.000000    0.00138889  15 t-inv F
  0.416667  0.166667  0.000000    0.00138889  16 t-inv F
  0.250000  0.250000  0.000000    0.00138889  17 t-inv F
  0.333333  0.250000  0.000000    0.00138889  18 t-inv F
  0.333333  0.333333  0.000000    0.00138889  19 t-inv F
  0.000000  0.000000  0.200000    0.00138889  20 t-inv F
  0.083333  0.000000  0.200000    0.00138889  21 t-inv F
  0.166667  0.000000  0.200000    0.00138889  22 t-inv F
  0.250000  0.000000  0.200000    0.00138889  23 t-inv F
  0.333333  0.000000  0.200000    0.00138889  24 t-inv F
  0.416667  0.000000  0.200000    0.00138889  25 t-inv F
  0.500000  0.000000  0.200000    0.00138889  26 t-inv F
  0.083333  0.083333  0.200000    0.00138889  27 t-inv F
  0.166667  0.083333  0.200000    0.00138889  28 t-inv F
  0.250000  0.083333  0.200000    0.00138889  29 t-inv F
  0.333333  0.083333  0.200000    0.00138889  30 t-inv F
  0.416667  0.083333  0.200000    0.00138889  31 t-inv F
  0.166667  0.166667  0.200000    0.00138889  32 t-inv F
  0.250000  0.166667  0.200000    0.00138889  33 t-inv F
  0.333333  0.166667  0.200000    0.00138889  34 t-inv F
  0.416667  0.166667  0.200000    0.00138889  35 t-inv F
  0.250000  0.250000  0.200000    0.00138889  36 t-inv F
  0.333333  0.250000  0.200000    0.00138889  37 t-inv F
  0.333333  0.333333  0.200000    0.00138889  38 t-inv F
  0.000000  0.000000  0.400000    0.00138889  39 t-inv F
  0.083333  0.000000  0.400000    0.00138889  40 t-inv F
  0.166667  0.000000  0.400000    0.00138889  41 t-inv F
  0.250000  0.000000  0.400000    0.00138889  42 t-inv F
  0.333333  0.000000  0.400000    0.00138889  43 t-inv F
  0.416667  0.000000  0.400000    0.00138889  44 t-inv F
  0.500000  0.000000  0.400000    0.00138889  45 t-inv F
  0.083333  0.083333  0.400000    0.00138889  46 t-inv F
  0.166667  0.083333  0.400000    0.00138889  47 t-inv F
  0.250000  0.083333  0.400000    0.00138889  48 t-inv F
  0.333333  0.083333  0.400000    0.00138889  49 t-inv F
  0.416667  0.083333  0.400000    0.00138889  50 t-inv F
  0.166667  0.166667  0.400000    0.00138889  51 t-inv F
  0.250000  0.166667  0.400000    0.00138889  52 t-inv F
  0.333333  0.166667  0.400000    0.00138889  53 t-inv F
  0.416667  0.166667  0.400000    0.00138889  54 t-inv F
  0.250000  0.250000  0.400000    0.00138889  55 t-inv F
  0.333333  0.250000  0.400000    0.00138889  56 t-inv F
  0.333333  0.333333  0.400000    0.00138889  57 t-inv F
  0.000000  0.000000  0.000000    0.00000000  58 t-inv F
  0.017857  0.000000  0.000000    0.00000000  59 t-inv F
  0.035714  0.000000  0.000000    0.00000000  60 t-inv F
  0.053571  0.000000  0.000000    0.00000000  61 t-inv F
  0.071429  0.000000  0.000000    0.00000000  62 t-inv F
  0.089286  0.000000  0.000000    0.00000000  63 t-inv F
  0.107143  0.000000  0.000000    0.00000000  64 t-inv F
  0.125000  0.000000  0.000000    0.00000000  65 t-inv F
  0.142857  0.000000  0.000000    0.00000000  66 t-inv F
  0.160714  0.000000  0.000000    0.00000000  67 t-inv F
  0.178571  0.000000  0.000000    0.00000000  68 t-inv F
  0.196429  0.000000  0.000000    0.00000000  69 t-inv F
  0.214286  0.000000  0.000000    0.00000000  70 t-inv F
  0.232143  0.000000  0.000000    0.00000000  71 t-inv F
  0.250000  0.000000  0.000000    0.00000000  72 t-inv F
  0.267857  0.000000  0.000000    0.00000000  73 t-inv F
  0.285714  0.000000  0.000000    0.00000000  74 t-inv F
  0.303571  0.000000  0.000000    0.00000000  75 t-inv F
  0.321429  0.000000  0.000000    0.00000000  76 t-inv F
  0.339286  0.000000  0.000000    0.00000000  77 t-inv F
  0.357143  0.000000  0.000000    0.00000000  78 t-inv F
  0.375000  0.000000  0.000000    0.00000000  79 t-inv F
  0.392857  0.000000  0.000000    0.00000000  80 t-inv F
  0.410714  0.000000  0.000000    0.00000000  81 t-inv F
  0.428571  0.000000  0.000000    0.00000000  82 t-inv F
  0.446429  0.000000  0.000000    0.00000000  83 t-inv F
  0.464286  0.000000  0.000000    0.00000000  84 t-inv F
  0.482143  0.000000  0.000000    0.00000000  85 t-inv F
  0.500000  0.000000  0.000000    0.00000000  86 t-inv F
  0.500000  0.000000  0.000000    0.00000000  87 t-inv F
  0.488889  0.022222  0.000000    0.00000000  88 t-inv F
  0.477778  0.044444  0.000000    0.00000000  89 t-inv F
  0.466667  0.066667  0.000000    0.00000000  90 t-inv F
  0.455556  0.088889  0.000000    0.00000000  91 t-inv F
  0.444444  0.111111  0.000000    0.00000000  92 t-inv F
  0.433333  0.133333  0.000000    0.00000000  93 t-inv F
  0.422222  0.155556  0.000000    0.00000000  94 t-inv F
  0.411111  0.177778  0.000000    0.00000000  95 t-inv F
  0.400000  0.200000  0.000000    0.00000000  96 t-inv F
  0.388889  0.222222  0.000000    0.00000000  97 t-inv F
  0.377778  0.244444  0.000000    0.00000000  98 t-inv F
  0.366667  0.266667  0.000000    0.00000000  99 t-inv F
  0.355556  0.288889  0.000000    0.00000000 100 t-inv F
  0.344444  0.311111  0.000000    0.00000000 101 t-inv F
  0.333333  0.333333  0.000000    0.00000000 102 t-inv F
  0.333333  0.333333  0.000000    0.00000000 103 t-inv F
  0.322917  0.322917  0.000000    0.00000000 104 t-inv F
  0.312500  0.312500  0.000000    0.00000000 105 t-inv F
  0.302083  0.302083  0.000000    0.00000000 106 t-inv F
  0.291667  0.291667  0.000000    0.00000000 107 t-inv F
  0.281250  0.281250  0.000000    0.00000000 108 t-inv F
  0.270833  0.270833  0.000000    0.00000000 109 t-inv F
  0.260417  0.260417  0.000000    0.00000000 110 t-inv F
  0.250000  0.250000  0.000000    0.00000000 111 t-inv F
  0.239583  0.239583  0.000000    0.00000000 112 t-inv F
  0.229167  0.229167  0.000000    0.00000000 113 t-inv F
  0.218750  0.218750  0.000000    0.00000000 114 t-inv F
  0.208333  0.208333  0.000000    0.00000000 115 t-inv F
  0.197917  0.197917  0.000000    0.00000000 116 t-inv F
  0.187500  0.187500  0.000000    0.00000000 117 t-inv F
  0.177083  0.177083  0.000000    0.00000000 118 t-inv F
  0.166667  0.166667  0.000000    0.00000000 119 t-inv F
  0.156250  0.156250  0.000000    0.00000000 120 t-inv F
  0.145833  0.145833  0.000000    0.00000000 121 t-inv F
  0.135417  0.135417  0.000000    0.00000000 122 t-inv F
  0.125000  0.125000  0.000000    0.00000000 123 t-inv F
  0.114583  0.114583  0.000000    0.00000000 124 t-inv F
  0.104167  0.104167  0.000000    0.00000000 125 t-inv F
  0.093750  0.093750  0.000000    0.00000000 126 t-inv F
  0.083333  0.083333  0.000000    0.00000000 127 t-inv F
  0.072917  0.072917  0.000000    0.00000000 128 t-inv F
  0.062500  0.062500  0.000000    0.00000000 129 t-inv F
  0.052083  0.052083  0.000000    0.00000000 130 t-inv F
  0.041667  0.041667  0.000000    0.00000000 131 t-inv F
  0.031250  0.031250  0.000000    0.00000000 132 t-inv F
  0.020833  0.020833  0.000000    0.00000000 133 t-inv F
  0.010417  0.010417  0.000000    0.00000000 134 t-inv F
  0.000000  0.000000  0.000000    0.00000000 135 t-inv F
  0.000000  0.000000  0.000000    0.00000000 136 t-inv F
  0.000000  0.000000  0.035714    0.00000000 137 t-inv F
  0.000000  0.000000  0.071429    0.00000000 138 t-inv F
  0.000000  0.000000  0.107143    0.00000000 139 t-inv F
  0.000000  0.000000  0.142857    0.00000000 140 t-inv F
  0.000000  0.000000  0.178571    0.00000000 141 t-inv F
  0.000000  0.000000  0.214286    0.00000000 142 t-inv F
  0.000000  0.000000  0.250000    0.00000000 143 t-inv F
  0.000000  0.000000  0.285714    0.00000000 144 t-inv F
  0.000000  0.000000  0.321429    0.00000000 145 t-inv F
  0.000000  0.000000  0.357143    0.00000000 146 t-inv F
  0.000000  0.000000  0.392857    0.00000000 147 t-inv F
  0.000000  0.000000  0.428571    0.00000000 148 t-inv F
  0.000000  0.000000  0.464286    0.00000000 149 t-inv F
  0.000000  0.000000  0.500000    0.00000000 150 t-inv F
  0.000000  0.000000  0.500000    0.00000000 151 t-inv F
  0.017857  0.000000  0.500000    0.00000000 152 t-inv F
  0.035714  0.000000  0.500000    0.00000000 153 t-inv F
  0.053571  0.000000  0.500000    0.00000000 154 t-inv F
  0.071429  0.000000  0.500000    0.00000000 155 t-inv F
  0.089286  0.000000  0.500000    0.00000000 156 t-inv F
  0.107143  0.000000  0.500000    0.00000000 157 t-inv F
  0.125000  0.000000  0.500000    0.00000000 158 t-inv F
  0.142857  0.000000  0.500000    0.00000000 159 t-inv F
  0.160714  0.000000  0.500000    0.00000000 160 t-inv F
  0.178571  0.000000  0.500000    0.00000000 161 t-inv F
  0.196429  0.000000  0.500000    0.00000000 162 t-inv F
  0.214286  0.000000  0.500000    0.00000000 163 t-inv F
  0.232143  0.000000  0.500000    0.00000000 164 t-inv F
  0.250000  0.000000  0.500000    0.00000000 165 t-inv F
  0.267857  0.000000  0.500000    0.00000000 166 t-inv F
  0.285714  0.000000  0.500000    0.00000000 167 t-inv F
  0.303571  0.000000  0.500000    0.00000000 168 t-inv F
  0.321429  0.000000  0.500000    0.00000000 169 t-inv F
  0.339286  0.000000  0.500000    0.00000000 170 t-inv F
  0.357143  0.000000  0.500000    0.00000000 171 t-inv F
  0.375000  0.000000  0.500000    0.00000000 172 t-inv F
  0.392857  0.000000  0.500000    0.00000000 173 t-inv F
  0.410714  0.000000  0.500000    0.00000000 174 t-inv F
  0.428571  0.000000  0.500000    0.00000000 175 t-inv F
  0.446429  0.000000  0.500000    0.00000000 176 t-inv F
  0.464286  0.000000  0.500000    0.00000000 177 t-inv F
  0.482143  0.000000  0.500000    0.00000000 178 t-inv F
  0.500000  0.000000  0.500000    0.00000000 179 t-inv F
  0.500000  0.000000  0.500000    0.00000000 180 t-inv F
  0.488889  0.022222  0.500000    0.00000000 181 t-inv F
  0.477778  0.044444  0.500000    0.00000000 182 t-inv F
  0.466667  0.066667  0.500000    0.00000000 183 t-inv F
  0.455556  0.088889  0.500000    0.00000000 184 t-inv F
  0.444444  0.111111  0.500000    0.00000000 185 t-inv F
  0.433333  0.133333  0.500000    0.00000000 186 t-inv F
  0.422222  0.155556  0.500000    0.00000000 187 t-inv F
  0.411111  0.177778  0.500000    0.00000000 188 t-inv F
  0.400000  0.200000  0.500000    0.00000000 189 t-inv F
  0.388889  0.222222  0.500000    0.00000000 190 t-inv F
  0.377778  0.244444  0.500000    0.00000000 191 t-inv F
  0.366667  0.266667  0.500000    0.00000000 192 t-inv F
  0.355556  0.288889  0.500000    0.00000000 193 t-inv F
  0.344444  0.311111  0.500000    0.00000000 194 t-inv F
  0.333333  0.333333  0.500000    0.00000000 195 t-inv F
  0.333333  0.333333  0.500000    0.00000000 196 t-inv F
  0.322917  0.322917  0.500000    0.00000000 197 t-inv F
  0.312500  0.312500  0.500000    0.00000000 198 t-inv F
  0.302083  0.302083  0.500000    0.00000000 199 t-inv F
  0.291667  0.291667  0.500000    0.00000000 200 t-inv F
  0.281250  0.281250  0.500000    0.00000000 201 t-inv F
  0.270833  0.270833  0.500000    0.00000000 202 t-inv F
  0.260417  0.260417  0.500000    0.00000000 203 t-inv F
  0.250000  0.250000  0.500000    0.00000000 204 t-inv F
  0.239583  0.239583  0.500000    0.00000000 205 t-inv F
  0.229167  0.229167  0.500000    0.00000000 206 t-inv F
  0.218750  0.218750  0.500000    0.00000000 207 t-inv F
  0.208333  0.208333  0.500000    0.00000000 208 t-inv F
  0.197917  0.197917  0.500000    0.00000000 209 t-inv F
  0.187500  0.187500  0.500000    0.00000000 210 t-inv F
  0.177083  0.177083  0.500000    0.00000000 211 t-inv F
  0.166667  0.166667  0.500000    0.00000000 212 t-inv F
  0.156250  0.156250  0.500000    0.00000000 213 t-inv F
  0.145833  0.145833  0.500000    0.00000000 214 t-inv F
  0.135417  0.135417  0.500000    0.00000000 215 t-inv F
  0.125000  0.125000  0.500000    0.00000000 216 t-inv F
  0.114583  0.114583  0.500000    0.00000000 217 t-inv F
  0.104167  0.104167  0.500000    0.00000000 218 t-inv F
  0.093750  0.093750  0.500000    0.00000000 219 t-inv F
  0.083333  0.083333  0.500000    0.00000000 220 t-inv F
  0.072917  0.072917  0.500000    0.00000000 221 t-inv F
  0.062500  0.062500  0.500000    0.00000000 222 t-inv F
  0.052083  0.052083  0.500000    0.00000000 223 t-inv F
  0.041667  0.041667  0.500000    0.00000000 224 t-inv F
  0.031250  0.031250  0.500000    0.00000000 225 t-inv F
  0.020833  0.020833  0.500000    0.00000000 226 t-inv F
  0.010417  0.010417  0.500000    0.00000000 227 t-inv F
  0.000000  0.000000  0.500000    0.00000000 228 t-inv F
  0.500000  0.000000  0.500000    0.00000000 229 t-inv F
  0.500000  0.000000  0.464286    0.00000000 230 t-inv F
  0.500000  0.000000  0.428571    0.00000000 231 t-inv F
  0.500000  0.000000  0.392857    0.00000000 232 t-inv F
  0.500000  0.000000  0.357143    0.00000000 233 t-inv F
  0.500000  0.000000  0.321429    0.00000000 234 t-inv F
  0.500000  0.000000  0.285714    0.00000000 235 t-inv F
  0.500000  0.000000  0.250000    0.00000000 236 t-inv F
  0.500000  0.000000  0.214286    0.00000000 237 t-inv F
  0.500000  0.000000  0.178571    0.00000000 238 t-inv F
  0.500000  0.000000  0.142857    0.00000000 239 t-inv F
  0.500000  0.000000  0.107143    0.00000000 240 t-inv F
  0.500000  0.000000  0.071429    0.00000000 241 t-inv F
  0.500000  0.000000  0.035714    0.00000000 242 t-inv F
  0.500000  0.000000  0.000000    0.00000000 243 t-inv F
  0.333333  0.333333  0.500000    0.00000000 244 t-inv F
  0.333333  0.333333  0.464286    0.00000000 245 t-inv F
  0.333333  0.333333  0.428571    0.00000000 246 t-inv F
  0.333333  0.333333  0.392857    0.00000000 247 t-inv F
  0.333333  0.333333  0.357143    0.00000000 248 t-inv F
  0.333333  0.333333  0.321429    0.00000000 249 t-inv F
  0.333333  0.333333  0.285714    0.00000000 250 t-inv F
  0.333333  0.333333  0.250000    0.00000000 251 t-inv F
  0.333333  0.333333  0.214286    0.00000000 252 t-inv F
  0.333333  0.333333  0.178571    0.00000000 253 t-inv F
  0.333333  0.333333  0.142857    0.00000000 254 t-inv F
  0.333333  0.333333  0.107143    0.00000000 255 t-inv F
  0.333333  0.333333  0.071429    0.00000000 256 t-inv F
  0.333333  0.333333  0.035714    0.00000000 257 t-inv F
  0.333333  0.333333  0.000000    0.00000000 258 t-inv F
 -0.083333  0.083333  0.000000    0.00138889   2 t-inv F
  0.000000 -0.083333  0.000000    0.00138889   2 t-inv F
  0.000000  0.083333  0.000000    0.00138889   2 t-inv F
 -0.083333  0.000000  0.000000    0.00138889   2 t-inv F
  0.083333 -0.083333  0.000000    0.00138889   2 t-inv F
 -0.166667  0.166667  0.000000    0.00138889   3 t-inv F
  0.000000 -0.166667  0.000000    0.00138889   3 t-inv F
  0.000000  0.166667  0.000000    0.00138889   3 t-inv F
 -0.166667  0.000000  0.000000    0.00138889   3 t-inv F
  0.166667 -0.166667  0.000000    0.00138889   3 t-inv F
 -0.250000  0.250000  0.000000    0.00138889   4 t-inv F
  0.000000 -0.250000  0.000000    0.00138889   4 t-inv F
  0.000000  0.250000  0.000000    0.00138889   4 t-inv F
 -0.250000  0.000000  0.000000    0.00138889   4 t-inv F
  0.250000 -0.250000  0.000000    0.00138889   4 t-inv F
 -0.333333  0.333333  0.000000    0.00138889   5 t-inv F
  0.000000 -0.333333  0.000000    0.00138889   5 t-inv F
  0.000000  0.333333  0.000000    0.00138889   5 t-inv F
 -0.333333  0.000000  0.000000    0.00138889   5 t-inv F
  0.333333 -0.333333  0.000000    0.00138889   5 t-inv F
 -0.416667  0.416667  0.000000    0.00138889   6 t-inv F
  0.000000 -0.416667  0.000000    0.00138889   6 t-inv F
  0.000000  0.416667  0.000000    0.00138889   6 t-inv F
 -0.416667  0.000000  0.000000    0.00138889   6 t-inv F
  0.416667 -0.416667  0.000000    0.00138889   6 t-inv F
 -0.500000  0.500000  0.000000    0.00138889   7 t-inv F
  0.000000 -0.500000  0.000000    0.00138889   7 t-inv F
 -0.166667  0.083333  0.000000    0.00138889   8 t-inv F
  0.083333 -0.166667  0.000000    0.00138889   8 t-inv F
 -0.083333  0.166667  0.000000    0.00138889   8 t-inv F
  0.166667 -0.083333  0.000000    0.00138889   8 t-inv F
 -0.083333 -0.083333  0.000000    0.00138889   8 t-inv F
 -0.250000  0.166667  0.000000    0.00138889   9 t-inv F
  0.083333 -0.250000  0.000000    0.00138889   9 t-inv F
 -0.166667  0.250000  0.000000    0.00138889   9 t-inv F
  0.250000 -0.083333  0.000000    0.00138889   9 t-inv F
 -0.083333 -0.166667  0.000000    0.00138889   9 t-inv F
 -0.083333  0.250000  0.000000    0.00138889   9 t-inv F
 -0.166667 -0.083333  0.000000    0.00138889   9 t-inv F
  0.250000 -0.166667  0.000000    0.00138889   9 t-inv F
  0.083333  0.166667  0.000000    0.00138889   9 t-inv F
  0.166667 -0.250000  0.000000    0.00138889   9 t-inv F
 -0.250000  0.083333  0.000000    0.00138889   9 t-inv F
 -0.333333  0.250000  0.000000    0.00138889  10 t-inv F
  0.083333 -0.333333  0.000000    0.00138889  10 t-inv F
 -0.250000  0.333333  0.000000    0.00138889  10 t-inv F
  0.333333 -0.083333  0.000000    0.00138889  10 t-inv F
 -0.083333 -0.250000  0.000000    0.00138889  10 t-inv F
 -0.083333  0.333333  0.000000    0.00138889  10 t-inv F
 -0.250000 -0.083333  0.000000    0.00138889  10 t-inv F
  0.333333 -0.250000  0.000000    0.00138889  10 t-inv F
  0.083333  0.250000  0.000000    0.00138889  10 t-inv F
  0.250000 -0.333333  0.000000    0.00138889  10 t-inv F
 -0.333333  0.083333  0.000000    0.00138889  10 t-inv F
 -0.416667  0.333333  0.000000    0.00138889  11 t-inv F
  0.083333 -0.416667  0.000000    0.00138889  11 t-inv F
 -0.333333  0.416667  0.000000    0.00138889  11 t-inv F
  0.416667 -0.083333  0.000000    0.00138889  11 t-inv F
 -0.083333 -0.333333  0.000000    0.00138889  11 t-inv F
 -0.083333  0.416667  0.000000    0.00138889  11 t-inv F
 -0.333333 -0.083333  0.000000    0.00138889  11 t-inv F
  0.416667 -0.333333  0.000000    0.00138889  11 t-inv F
  0.083333  0.333333  0.000000    0.00138889  11 t-inv F
  0.333333 -0.416667  0.000000    0.00138889  11 t-inv F
 -0.416667  0.083333  0.000000    0.00138889  11 t-inv F
 -0.500000  0.416667  0.000000    0.00138889  12 t-inv F
  0.083333 -0.500000  0.000000    0.00138889  12 t-inv F
 -0.416667  0.500000  0.000000    0.00138889  12 t-inv F
  0.500000 -0.083333  0.000000    0.00138889  12 t-inv F
 -0.083333 -0.416667  0.000000    0.00138889  12 t-inv F
 -0.083333  0.500000  0.000000    0.00138889  12 t-inv F
 -0.416667 -0.083333  0.000000    0.00138889  12 t-inv F
  0.500000 -0.416667  0.000000    0.00138889  12 t-inv F
  0.083333  0.416667  0.000000    0.00138889  12 t-inv F
  0.416667 -0.500000  0.000000    0.00138889  12 t-inv F
 -0.500000  0.083333  0.000000    0.00138889  12 t-inv F
 -0.333333  0.166667  0.000000    0.00138889  13 t-inv F
  0.166667 -0.333333  0.000000    0.00138889  13 t-inv F
 -0.166667  0.333333  0.000000    0.00138889  13 t-inv F
  0.333333 -0.166667  0.000000    0.00138889  13 t-inv F
 -0.166667 -0.166667  0.000000    0.00138889  13 t-inv F
 -0.416667  0.250000  0.000000    0.00138889  14 t-inv F
  0.166667 -0.416667  0.000000    0.00138889  14 t-inv F
 -0.250000  0.416667  0.000000    0.00138889  14 t-inv F
  0.416667 -0.166667  0.000000    0.00138889  14 t-inv F
 -0.166667 -0.250000  0.000000    0.00138889  14 t-inv F
 -0.166667  0.416667  0.000000    0.00138889  14 t-inv F
 -0.250000 -0.166667  0.000000    0.00138889  14 t-inv F
  0.416667 -0.250000  0.000000    0.00138889  14 t-inv F
  0.166667  0.250000  0.000000    0.00138889  14 t-inv F
  0.250000 -0.416667  0.000000    0.00138889  14 t-inv F
 -0.416667  0.166667  0.000000    0.00138889  14 t-inv F
 -0.500000  0.333333  0.000000    0.00138889  15 t-inv F
  0.166667 -0.500000  0.000000    0.00138889  15 t-inv F
 -0.333333  0.500000  0.000000    0.00138889  15 t-inv F
  0.500000 -0.166667  0.000000    0.00138889  15 t-inv F
 -0.166667 -0.333333  0.000000    0.00138889  15 t-inv F
 -0.166667  0.500000  0.000000    0.00138889  15 t-inv F
 -0.333333 -0.166667  0.000000    0.00138889  15 t-inv F
  0.500000 -0.333333  0.000000    0.00138889  15 t-inv F
  0.166667  0.333333  0.000000    0.00138889  15 t-inv F
  0.333333 -0.500000  0.000000    0.00138889  15 t-inv F
 -0.500000  0.166667  0.000000    0.00138889  15 t-inv F
 -0.583333  0.416667  0.000000    0.00138889  16 t-inv F
  0.166667 -0.583333  0.000000    0.00138889  16 t-inv F
 -0.416667  0.583333  0.000000    0.00138889  16 t-inv F
  0.583333 -0.166667  0.000000    0.00138889  16 t-inv F
 -0.166667 -0.416667  0.000000    0.00138889  16 t-inv F
 -0.500000  0.250000  0.000000    0.00138889  17 t-inv F
  0.250000 -0.500000  0.000000    0.00138889  17 t-inv F
 -0.250000  0.500000  0.000000    0.00138889  17 t-inv F
  0.500000 -0.250000  0.000000    0.00138889  17 t-inv F
 -0.250000 -0.250000  0.000000    0.00138889  17 t-inv F
 -0.583333  0.333333  0.000000    0.00138889  18 t-inv F
  0.250000 -0.583333  0.000000    0.00138889  18 t-inv F
 -0.333333  0.583333  0.000000    0.00138889  18 t-inv F
  0.583333 -0.250000  0.000000    0.00138889  18 t-inv F
 -0.250000 -0.333333  0.000000    0.00138889  18 t-inv F
 -0.250000  0.583333  0.000000    0.00138889  18 t-inv F
 -0.333333 -0.250000  0.000000    0.00138889  18 t-inv F
  0.583333 -0.333333  0.000000    0.00138889  18 t-inv F
  0.250000  0.333333  0.000000    0.00138889  18 t-inv F
  0.333333 -0.583333  0.000000    0.00138889  18 t-inv F
 -0.583333  0.250000  0.000000    0.00138889  18 t-inv F
 -0.333333  0.666667  0.000000    0.00138889  19 t-inv F
 -0.083333  0.083333  0.200000    0.00138889  21 t-inv F
  0.000000 -0.083333  0.200000    0.00138889  21 t-inv F
  0.000000  0.083333  0.200000    0.00138889  21 t-inv F
 -0.083333  0.000000  0.200000    0.00138889  21 t-inv F
  0.083333 -0.083333  0.200000    0.00138889  21 t-inv F
 -0.166667  0.166667  0.200000    0.00138889  22 t-inv F
  0.000000 -0.166667  0.200000    0.00138889  22 t-inv F
  0.000000  0.166667  0.200000    0.00138889  22 t-inv F
 -0.166667  0.000000  0.200000    0.00138889  22 t-inv F
  0.166667 -0.166667  0.200000    0.00138889  22 t-inv F
 -0.250000  0.250000  0.200000    0.00138889  23 t-inv F
  0.000000 -0.250000  0.200000    0.00138889  23 t-inv F
  0.000000  0.250000  0.200000    0.00138889  23 t-inv F
 -0.250000  0.000000  0.200000    0.00138889  23 t-inv F
  0.250000 -0.250000  0.200000    0.00138889  23 t-inv F
 -0.333333  0.333333  0.200000    0.00138889  24 t-inv F
  0.000000 -0.333333  0.200000    0.00138889  24 t-inv F
  0.000000  0.333333  0.200000    0.00138889  24 t-inv F
 -0.333333  0.000000  0.200000    0.00138889  24 t-inv F
  0.333333 -0.333333  0.200000    0.00138889  24 t-inv F
 -0.416667  0.416667  0.200000    0.00138889  25 t-inv F
  0.000000 -0.416667  0.200000    0.00138889  25 t-inv F
  0.000000  0.416667  0.200000    0.00138889  25 t-inv F
 -0.416667  0.000000  0.200000    0.00138889  25 t-inv F
  0.416667 -0.416667  0.200000    0.00138889  25 t-inv F
 -0.500000  0.500000  0.200000    0.00138889  26 t-inv F
  0.000000 -0.500000  0.200000    0.00138889  26 t-inv F
 -0.166667  0.083333  0.200000    0.00138889  27 t-inv F
  0.083333 -0.166667  0.200000    0.00138889  27 t-inv F
 -0.083333  0.166667  0.200000    0.00138889  27 t-inv F
  0.166667 -0.083333  0.200000    0.00138889  27 t-inv F
 -0.083333 -0.083333  0.200000    0.00138889  27 t-inv F
 -0.250000  0.166667  0.200000    0.00138889  28 t-inv F
  0.083333 -0.250000  0.200000    0.00138889  28 t-inv F
 -0.166667  0.250000  0.200000    0.00138889  28 t-inv F
  0.250000 -0.083333  0.200000    0.00138889  28 t-inv F
 -0.083333 -0.166667  0.200000    0.00138889  28 t-inv F
 -0.083333  0.250000  0.200000    0.00138889  28 t-inv F
 -0.166667 -0.083333  0.200000    0.00138889  28 t-inv F
  0.250000 -0.166667  0.200000    0.00138889  28 t-inv F
  0.083333  0.166667  0.200000    0.00138889  28 t-inv F
  0.166667 -0.250000  0.200000    0.00138889  28 t-inv F
 -0.250000  0.083333  0.200000    0.00138889  28 t-inv F
 -0.333333  0.250000  0.200000    0.00138889  29 t-inv F
  0.083333 -0.333333  0.200000    0.00138889  29 t-inv F
 -0.250000  0.333333  0.200000    0.00138889  29 t-inv F
  0.333333 -0.083333  0.200000    0.00138889  29 t-inv F
 -0.083333 -0.250000  0.200000    0.00138889  29 t-inv F
 -0.083333  0.333333  0.200000    0.00138889  29 t-inv F
 -0.250000 -0.083333  0.200000    0.00138889  29 t-inv F
  0.333333 -0.250000  0.200000    0.00138889  29 t-inv F
  0.083333  0.250000  0.200000    0.00138889  29 t-inv F
  0.250000 -0.333333  0.200000    0.00138889  29 t-inv F
 -0.333333  0.083333  0.200000    0.00138889  29 t-inv F
 -0.416667  0.333333  0.200000    0.00138889  30 t-inv F
  0.083333 -0.416667  0.200000    0.00138889  30 t-inv F
 -0.333333  0.416667  0.200000    0.00138889  30 t-inv F
  0.416667 -0.083333  0.200000    0.00138889  30 t-inv F
 -0.083333 -0.333333  0.200000    0.00138889  30 t-inv F
 -0.083333  0.416667  0.200000    0.00138889  30 t-inv F
 -0.333333 -0.083333  0.200000    0.00138889  30 t-inv F
  0.416667 -0.333333  0.200000    0.00138889  30 t-inv F
  0.083333  0.333333  0.200000    0.00138889  30 t-inv F
  0.333333 -0.416667  0.200000    0.00138889  30 t-inv F
 -0.416667  0.083333  0.200000    0.00138889  30 t-inv F
 -0.500000  0.416667  0.200000    0.00138889  31 t-inv F
  0.083333 -0.500000  0.200000    0.00138889  31 t-inv F
 -0.416667  0.500000  0.200000    0.00138889  31 t-inv F
  0.500000 -0.083333  0.200000    0.00138889  31 t-inv F
 -0.083333 -0.416667  0.200000    0.00138889  31 t-inv F
 -0.083333  0.500000  0.200000    0.00138889  31 t-inv F
 -0.416667 -0.083333  0.200000    0.00138889  31 t-inv F
  0.500000 -0.416667  0.200000    0.00138889  31 t-inv F
  0.083333  0.416667  0.200000    0.00138889  31 t-inv F
  0.416667 -0.500000  0.200000    0.00138889  31 t-inv F
 -0.500000  0.083333  0.200000    0.00138889  31 t-inv F
 -0.333333  0.166667  0.200000    0.00138889  32 t-inv F
  0.166667 -0.333333  0.200000    0.00138889  32 t-inv F
 -0.166667  0.333333  0.200000    0.00138889  32 t-inv F
  0.333333 -0.166667  0.200000    0.00138889  32 t-inv F
 -0.166667 -0.166667  0.200000    0.00138889  32 t-inv F
 -0.416667  0.250000  0.200000    0.00138889  33 t-inv F
  0.166667 -0.416667  0.200000    0.00138889  33 t-inv F
 -0.250000  0.416667  0.200000    0.00138889  33 t-inv F
  0.416667 -0.166667  0.200000    0.00138889  33 t-inv F
 -0.166667 -0.250000  0.200000    0.00138889  33 t-inv F
 -0.166667  0.416667  0.200000    0.00138889  33 t-inv F
 -0.250000 -0.166667  0.200000    0.00138889  33 t-inv F
  0.416667 -0.250000  0.200000    0.00138889  33 t-inv F
  0.166667  0.250000  0.200000    0.00138889  33 t-inv F
  0.250000 -0.416667  0.200000    0.00138889  33 t-inv F
 -0.416667  0.166667  0.200000    0.00138889  33 t-inv F
 -0.500000  0.333333  0.200000    0.00138889  34 t-inv F
  0.166667 -0.500000  0.200000    0.00138889  34 t-inv F
 -0.333333  0.500000  0.200000    0.00138889  34 t-inv F
  0.500000 -0.166667  0.200000    0.00138889  34 t-inv F
 -0.166667 -0.333333  0.200000    0.00138889  34 t-inv F
 -0.166667  0.500000  0.200000    0.00138889  34 t-inv F
 -0.333333 -0.166667  0.200000    0.00138889  34 t-inv F
  0.500000 -0.333333  0.200000    0.00138889  34 t-inv F
  0.166667  0.333333  0.200000    0.00138889  34 t-inv F
  0.333333 -0.500000  0.200000    0.00138889  34 t-inv F
 -0.500000  0.166667  0.200000    0.00138889  34 t-inv F
 -0.583333  0.416667  0.200000    0.00138889  35 t-inv F
  0.166667 -0.583333  0.200000    0.00138889  35 t-inv F
 -0.416667  0.583333  0.200000    0.00138889  35 t-inv F
  0.583333 -0.166667  0.200000    0.00138889  35 t-inv F
 -0.166667 -0.416667  0.200000    0.00138889  35 t-inv F
 -0.500000  0.250000  0.200000    0.00138889  36 t-inv F
  0.250000 -0.500000  0.200000    0.00138889  36 t-inv F
 -0.250000  0.500000  0.200000    0.00138889  36 t-inv F
  0.500000 -0.250000  0.200000    0.00138889  36 t-inv F
 -0.250000 -0.250000  0.200000    0.00138889  36 t-inv F
 -0.583333  0.333333  0.200000    0.00138889  37 t-inv F
  0.250000 -0.583333  0.200000    0.00138889  37 t-inv F
 -0.333333  0.583333  0.200000    0.00138889  37 t-inv F
  0.583333 -0.250000  0.200000    0.00138889  37 t-inv F
 -0.250000 -0.333333  0.200000    0.00138889  37 t-inv F
 -0.250000  0.583333  0.200000    0.00138889  37 t-inv F
 -0.333333 -0.250000  0.200000    0.00138889  37 t-inv F
  0.583333 -0.333333  0.200000    0.00138889  37 t-inv F
  0.250000  0.333333  0.200000    0.00138889  37 t-inv F
  0.333333 -0.583333  0.200000    0.00138889  37 t-inv F
 -0.583333  0.250000  0.200000    0.00138889  37 t-inv F
 -0.333333  0.666667  0.200000    0.00138889  38 t-inv F
 -0.083333  0.083333  0.400000    0.00138889  40 t-inv F
  0.000000 -0.083333  0.400000    0.00138889  40 t-inv F
  0.000000  0.083333  0.400000    0.00138889  40 t-inv F
 -0.083333  0.000000  0.400000    0.00138889  40 t-inv F
  0.083333 -0.083333  0.400000    0.00138889  40 t-inv F
 -0.166667  0.166667  0.400000    0.00138889  41 t-inv F
  0.000000 -0.166667  0.400000    0.00138889  41 t-inv F
  0.000000  0.166667  0.400000    0.00138889  41 t-inv F
 -0.166667  0.000000  0.400000    0.00138889  41 t-inv F
  0.166667 -0.166667  0.400000    0.00138889  41 t-inv F
 -0.250000  0.250000  0.400000    0.00138889  42 t-inv F
  0.000000 -0.250000  0.400000    0.00138889  42 t-inv F
  0.000000  0.250000  0.400000    0.00138889  42 t-inv F
 -0.250000  0.000000  0.400000    0.00138889  42 t-inv F
  0.250000 -0.250000  0.400000    0.00138889  42 t-inv F
 -0.333333  0.333333  0.400000    0.00138889  43 t-inv F
  0.000000 -0.333333  0.400000    0.00138889  43 t-inv F
  0.000000  0.333333  0.400000    0.00138889  43 t-inv F
 -0.333333  0.000000  0.400000    0.00138889  43 t-inv F
  0.333333 -0.333333  0.400000    0.00138889  43 t-inv F
 -0.416667  0.416667  0.400000    0.00138889  44 t-inv F
  0.000000 -0.416667  0.400000    0.00138889  44 t-inv F
  0.000000  0.416667  0.400000    0.00138889  44 t-inv F
 -0.416667  0.000000  0.400000    0.00138889  44 t-inv F
  0.416667 -0.416667  0.400000    0.00138889  44 t-inv F
 -0.500000  0.500000  0.400000    0.00138889  45 t-inv F
  0.000000 -0.500000  0.400000    0.00138889  45 t-inv F
 -0.166667  0.083333  0.400000    0.00138889  46 t-inv F
  0.083333 -0.166667  0.400000    0.00138889  46 t-inv F
 -0.083333  0.166667  0.400000    0.00138889  46 t-inv F
  0.166667 -0.083333  0.400000    0.00138889  46 t-inv F
 -0.083333 -0.083333  0.400000    0.00138889  46 t-inv F
 -0.250000  0.166667  0.400000    0.00138889  47 t-inv F
  0.083333 -0.250000  0.400000    0.00138889  47 t-inv F
 -0.166667  0.250000  0.400000    0.00138889  47 t-inv F
  0.250000 -0.083333  0.400000    0.00138889  47 t-inv F
 -0.083333 -0.166667  0.400000    0.00138889  47 t-inv F
 -0.083333  0.250000  0.400000    0.00138889  47 t-inv F
 -0.166667 -0.083333  0.400000    0.00138889  47 t-inv F
  0.250000 -0.166667  0.400000    0.00138889  47 t-inv F
  0.083333  0.166667  0.400000    0.00138889  47 t-inv F
  0.166667 -0.250000  0.400000    0.00138889  47 t-inv F
 -0.250000  0.083333  0.400000    0.00138889  47 t-inv F
 -0.333333  0.250000  0.400000    0.00138889  48 t-inv F
  0.083333 -0.333333  0.400000    0.00138889  48 t-inv F
 -0.250000  0.333333  0.400000    0.00138889  48 t-inv F
  0.333333 -0.083333  0.400000    0.00138889  48 t-inv F
 -0.083333 -0.250000  0.400000    0.00138889  48 t-inv F
 -0.083333  0.333333  0.400000    0.00138889  48 t-inv F
 -0.250000 -0.083333  0.400000    0.00138889  48 t-inv F
  0.333333 -0.250000  0.400000    0.00138889  48 t-inv F
  0.083333  0.250000  0.400000    0.00138889  48 t-inv F
  0.250000 -0.333333  0.400000    0.00138889  48 t-inv F
 -0.333333  0.083333  0.400000    0.00138889  48 t-inv F
 -0.416667  0.333333  0.400000    0.00138889  49 t-inv F
  0.083333 -0.416667  0.400000    0.00138889  49 t-inv F
 -0.333333  0.416667  0.400000    0.00138889  49 t-inv F
  0.416667 -0.083333  0.400000    0.00138889  49 t-inv F
 -0.083333 -0.333333  0.400000    0.00138889  49 t-inv F
 -0.083333  0.416667  0.400000    0.00138889  49 t-inv F
 -0.333333 -0.083333  0.400000    0.00138889  49 t-inv F
  0.416667 -0.333333  0.400000    0.00138889  49 t-inv F
  0.083333  0.333333  0.400000    0.00138889  49 t-inv F
  0.333333 -0.416667  0.400000    0.00138889  49 t-inv F
 -0.416667  0.083333  0.400000    0.00138889  49 t-inv F
 -0.500000  0.416667  0.400000    0.00138889  50 t-inv F
  0.083333 -0.500000  0.400000    0.00138889  50 t-inv F
 -0.416667  0.500000  0.400000    0.00138889  50 t-inv F
  0.500000 -0.083333  0.400000    0.00138889  50 t-inv F
 -0.083333 -0.416667  0.400000    0.00138889  50 t-inv F
 -0.083333  0.500000  0.400000    0.00138889  50 t-inv F
 -0.416667 -0.083333  0.400000    0.00138889  50 t-inv F
  0.500000 -0.416667  0.400000    0.00138889  50 t-inv F
  0.083333  0.416667  0.400000    0.00138889  50 t-inv F
  0.416667 -0.500000  0.400000    0.00138889  50 t-inv F
 -0.500000  0.083333  0.400000    0.00138889  50 t-inv F
 -0.333333  0.166667  0.400000    0.00138889  51 t-inv F
  0.166667 -0.333333  0.400000    0.00138889  51 t-inv F
 -0.166667  0.333333  0.400000    0.00138889  51 t-inv F
  0.333333 -0.166667  0.400000    0.00138889  51 t-inv F
 -0.166667 -0.166667  0.400000    0.00138889  51 t-inv F
 -0.416667  0.250000  0.400000    0.00138889  52 t-inv F
  0.166667 -0.416667  0.400000    0.00138889  52 t-inv F
 -0.250000  0.416667  0.400000    0.00138889  52 t-inv F
  0.416667 -0.166667  0.400000    0.00138889  52 t-inv F
 -0.166667 -0.250000  0.400000    0.00138889  52 t-inv F
 -0.166667  0.416667  0.400000    0.00138889  52 t-inv F
 -0.250000 -0.166667  0.400000    0.00138889  52 t-inv F
  0.416667 -0.250000  0.400000    0.00138889  52 t-inv F
  0.166667  0.250000  0.400000    0.00138889  52 t-inv F
  0.250000 -0.416667  0.400000    0.00138889  52 t-inv F
 -0.416667  0.166667  0.400000    0.00138889  52 t-inv F
 -0.500000  0.333333  0.400000    0.00138889  53 t-inv F
  0.166667 -0.500000  0.400000    0.00138889  53 t-inv F
 -0.333333  0.500000  0.400000    0.00138889  53 t-inv F
  0.500000 -0.166667  0.400000    0.00138889  53 t-inv F
 -0.166667 -0.333333  0.400000    0.00138889  53 t-inv F
 -0.166667  0.500000  0.400000    0.00138889  53 t-inv F
 -0.333333 -0.166667  0.400000    0.00138889  53 t-inv F
  0.500000 -0.333333  0.400000    0.00138889  53 t-inv F
  0.166667  0.333333  0.400000    0.00138889  53 t-inv F
  0.333333 -0.500000  0.400000    0.00138889  53 t-inv F
 -0.500000  0.166667  0.400000    0.00138889  53 t-inv F
 -0.583333  0.416667  0.400000    0.00138889  54 t-inv F
  0.166667 -0.583333  0.400000    0.00138889  54 t-inv F
 -0.416667  0.583333  0.400000    0.00138889  54 t-inv F
  0.583333 -0.166667  0.400000    0.00138889  54 t-inv F
 -0.166667 -0.416667  0.400000    0.00138889  54 t-inv F
 -0.500000  0.250000  0.400000    0.00138889  55 t-inv F
  0.250000 -0.500000  0.400000    0.00138889  55 t-inv F
 -0.250000  0.500000  0.400000    0.00138889  55 t-inv F
  0.500000 -0.250000  0.400000    0.00138889  55 t-inv F
 -0.250000 -0.250000  0.400000    0.00138889  55 t-inv F
 -0.583333  0.333333  0.400000    0.00138889  56 t-inv F
  0.250000 -0.583333  0.400000    0.00138889  56 t-inv F
 -0.333333  0.583333  0.400000    0.00138889  56 t-inv F
  0.583333 -0.250000  0.400000    0.00138889  56 t-inv F
 -0.250000 -0.333333  0.400000    0.00138889  56 t-inv F
 -0.250000  0.583333  0.400000    0.00138889  56 t-inv F
 -0.333333 -0.250000  0.400000    0.00138889  56 t-inv F
  0.583333 -0.333333  0.400000    0.00138889  56 t-inv F
  0.250000  0.333333  0.400000    0.00138889  56 t-inv F
  0.333333 -0.583333  0.400000    0.00138889  56 t-inv F
 -0.583333  0.250000  0.400000    0.00138889  56 t-inv F
 -0.333333  0.666667  0.400000    0.00138889  57 t-inv F
  0.000000  0.000000 -0.200000    0.00138889  20 t-inv T
 -0.083333  0.000000 -0.200000    0.00138889  21 t-inv T
  0.083333 -0.083333 -0.200000    0.00138889  21 t-inv T
  0.000000  0.083333 -0.200000    0.00138889  21 t-inv T
  0.000000 -0.083333 -0.200000    0.00138889  21 t-inv T
  0.083333  0.000000 -0.200000    0.00138889  21 t-inv T
 -0.083333  0.083333 -0.200000    0.00138889  21 t-inv T
 -0.166667  0.000000 -0.200000    0.00138889  22 t-inv T
  0.166667 -0.166667 -0.200000    0.00138889  22 t-inv T
  0.000000  0.166667 -0.200000    0.00138889  22 t-inv T
  0.000000 -0.166667 -0.200000    0.00138889  22 t-inv T
  0.166667  0.000000 -0.200000    0.00138889  22 t-inv T
 -0.166667  0.166667 -0.200000    0.00138889  22 t-inv T
 -0.250000  0.000000 -0.200000    0.00138889  23 t-inv T
  0.250000 -0.250000 -0.200000    0.00138889  23 t-inv T
  0.000000  0.250000 -0.200000    0.00138889  23 t-inv T
  0.000000 -0.250000 -0.200000    0.00138889  23 t-inv T
  0.250000  0.000000 -0.200000    0.00138889  23 t-inv T
 -0.250000  0.250000 -0.200000    0.00138889  23 t-inv T
 -0.333333  0.000000 -0.200000    0.00138889  24 t-inv T
  0.333333 -0.333333 -0.200000    0.00138889  24 t-inv T
  0.000000  0.333333 -0.200000    0.00138889  24 t-inv T
  0.000000 -0.333333 -0.200000    0.00138889  24 t-inv T
  0.333333  0.000000 -0.200000    0.00138889  24 t-inv T
 -0.333333  0.333333 -0.200000    0.00138889  24 t-inv T
 -0.416667  0.000000 -0.200000    0.00138889  25 t-inv T
  0.416667 -0.416667 -0.200000    0.00138889  25 t-inv T
  0.000000  0.416667 -0.200000    0.00138889  25 t-inv T
  0.000000 -0.416667 -0.200000    0.00138889  25 t-inv T
  0.416667  0.000000 -0.200000    0.00138889  25 t-inv T
 -0.416667  0.416667 -0.200000    0.00138889  25 t-inv T
 -0.500000  0.000000 -0.200000    0.00138889  26 t-inv T
  0.500000 -0.500000 -0.200000    0.00138889  26 t-inv T
  0.000000  0.500000 -0.200000    0.00138889  26 t-inv T
 -0.083333 -0.083333 -0.200000    0.00138889  27 t-inv T
  0.166667 -0.083333 -0.200000    0.00138889  27 t-inv T
 -0.083333  0.166667 -0.200000    0.00138889  27 t-inv T
  0.083333 -0.166667 -0.200000    0.00138889  27 t-inv T
 -0.166667  0.083333 -0.200000    0.00138889  27 t-inv T
  0.083333  0.083333 -0.200000    0.00138889  27 t-inv T
 -0.166667 -0.083333 -0.200000    0.00138889  28 t-inv T
  0.250000 -0.166667 -0.200000    0.00138889  28 t-inv T
 -0.083333  0.250000 -0.200000    0.00138889  28 t-inv T
  0.166667 -0.250000 -0.200000    0.00138889  28 t-inv T
 -0.250000  0.083333 -0.200000    0.00138889  28 t-inv T
  0.083333  0.166667 -0.200000    0.00138889  28 t-inv T
  0.083333 -0.250000 -0.200000    0.00138889  28 t-inv T
  0.166667  0.083333 -0.200000    0.00138889  28 t-inv T
 -0.250000  0.166667 -0.200000    0.00138889  28 t-inv T
 -0.083333 -0.166667 -0.200000    0.00138889  28 t-inv T
 -0.166667  0.250000 -0.200000    0.00138889  28 t-inv T
  0.250000 -0.083333 -0.200000    0.00138889  28 t-inv T
 -0.250000 -0.083333 -0.200000    0.00138889  29 t-inv T
  0.333333 -0.250000 -0.200000    0.00138889  29 t-inv T
 -0.083333  0.333333 -0.200000    0.00138889  29 t-inv T
  0.250000 -0.333333 -0.200000    0.00138889  29 t-inv T
 -0.333333  0.083333 -0.200000    0.00138889  29 t-inv T
  0.083333  0.250000 -0.200000    0.00138889  29 t-inv T
  0.083333 -0.333333 -0.200000    0.00138889  29 t-inv T
  0.250000  0.083333 -0.200000    0.00138889  29 t-inv T
 -0.333333  0.250000 -0.200000    0.00138889  29 t-inv T
 -0.083333 -0.250000 -0.200000    0.00138889  29 t-inv T
 -0.250000  0.333333 -0.200000    0.00138889  29 t-inv T
  0.333333 -0.083333 -0.200000    0.00138889  29 t-inv T
 -0.333333 -0.083333 -0.200000    0.00138889  30 t-inv T
  0.416667 -0.333333 -0.200000    0.00138889  30 t-inv T
 -0.083333  0.416667 -0.200000    0.00138889  30 t-inv T
  0.333333 -0.416667 -0.200000    0.00138889  30 t-inv T
 -0.416667  0.083333 -0.200000    0.00138889  30 t-inv T
  0.083333  0.333333 -0.200000    0.00138889  30 t-inv T
  0.083333 -0.416667 -0.200000    0.00138889  30 t-inv T
  0.333333  0.083333 -0.200000    0.00138889  30 t-inv T
 -0.416667  0.333333 -0.200000    0.00138889  30 t-inv T
 -0.083333 -0.333333 -0.200000    0.00138889  30 t-inv T
 -0.333333  0.416667 -0.200000    0.00138889  30 t-inv T
  0.416667 -0.083333 -0.200000    0.00138889  30 t-inv T
 -0.416667 -0.083333 -0.200000    0.00138889  31 t-inv T
  0.500000 -0.416667 -0.200000    0.00138889  31 t-inv T
 -0.083333  0.500000 -0.200000    0.00138889  31 t-inv T
  0.416667 -0.500000 -0.200000    0.00138889  31 t-inv T
 -0.500000  0.083333 -0.200000    0.00138889  31 t-inv T
  0.083333  0.416667 -0.200000    0.00138889  31 t-inv T
  0.083333 -0.500000 -0.200000    0.00138889  31 t-inv T
  0.416667  0.083333 -0.200000    0.00138889  31 t-inv T
 -0.500000  0.416667 -0.200000    0.00138889  31 t-inv T
 -0.083333 -0.416667 -0.200000    0.00138889  31 t-inv T
 -0.416667  0.500000 -0.200000    0.00138889  31 t-inv T
  0.500000 -0.083333 -0.200000    0.00138889  31 t-inv T
 -0.166667 -0.166667 -0.200000    0.00138889  32 t-inv T
  0.333333 -0.166667 -0.200000    0.00138889  32 t-inv T
 -0.166667  0.333333 -0.200000    0.00138889  32 t-inv T
  0.166667 -0.333333 -0.200000    0.00138889  32 t-inv T
 -0.333333  0.166667 -0.200000    0.00138889  32 t-inv T
  0.166667  0.166667 -0.200000    0.00138889  32 t-inv T
 -0.250000 -0.166667 -0.200000    0.00138889  33 t-inv T
  0.416667 -0.250000 -0.200000    0.00138889  33 t-inv T
 -0.166667  0.416667 -0.200000    0.00138889  33 t-inv T
  0.250000 -0.416667 -0.200000    0.00138889  33 t-inv T
 -0.416667  0.166667 -0.200000    0.00138889  33 t-inv T
  0.166667  0.250000 -0.200000    0.00138889  33 t-inv T
  0.166667 -0.416667 -0.200000    0.00138889  33 t-inv T
  0.250000  0.166667 -0.200000    0.00138889  33 t-inv T
 -0.416667  0.250000 -0.200000    0.00138889  33 t-inv T
 -0.166667 -0.250000 -0.200000    0.00138889  33 t-inv T
 -0.250000  0.416667 -0.200000    0.00138889  33 t-inv T
  0.416667 -0.166667 -0.200000    0.00138889  33 t-inv T
 -0.333333 -0.166667 -0.200000    0.00138889  34 t-inv T
  0.500000 -0.333333 -0.200000    0.00138889  34 t-inv T
 -0.166667  0.500000 -0.200000    0.00138889  34 t-inv T
  0.333333 -0.500000 -0.200000    0.00138889  34 t-inv T
 -0.500000  0.166667 -0.200000    0.00138889  34 t-inv T
  0.166667  0.333333 -0.200000    0.00138889  34 t-inv T
  0.166667 -0.500000 -0.200000    0.00138889  34 t-inv T
  0.333333  0.166667 -0.200000    0.00138889  34 t-inv T
 -0.500000  0.333333 -0.200000    0.00138889  34 t-inv T
 -0.166667 -0.333333 -0.200000    0.00138889  34 t-inv T
 -0.333333  0.500000 -0.200000    0.00138889  34 t-inv T
  0.500000 -0.166667 -0.200000    0.00138889  34 t-inv T
 -0.416667 -0.166667 -0.200000    0.00138889  35 t-inv T
  0.583333 -0.416667 -0.200000    0.00138889  35 t-inv T
 -0.166667  0.583333 -0.200000    0.00138889  35 t-inv T
  0.416667 -0.583333 -0.200000    0.00138889  35 t-inv T
 -0.583333  0.166667 -0.200000    0.00138889  35 t-inv T
  0.166667  0.416667 -0.200000    0.00138889  35 t-inv T
 -0.250000 -0.250000 -0.200000    0.00138889  36 t-inv T
  0.500000 -0.250000 -0.200000    0.00138889  36 t-inv T
 -0.250000  0.500000 -0.200000    0.00138889  36 t-inv T
  0.250000 -0.500000 -0.200000    0.00138889  36 t-inv T
 -0.500000  0.250000 -0.200000    0.00138889  36 t-inv T
  0.250000  0.250000 -0.200000    0.00138889  36 t-inv T
 -0.333333 -0.250000 -0.200000    0.00138889  37 t-inv T
  0.583333 -0.333333 -0.200000    0.00138889  37 t-inv T
 -0.250000  0.583333 -0.200000    0.00138889  37 t-inv T
  0.333333 -0.583333 -0.200000    0.00138889  37 t-inv T
 -0.583333  0.250000 -0.200000    0.00138889  37 t-inv T
  0.250000  0.333333 -0.200000    0.00138889  37 t-inv T
  0.250000 -0.583333 -0.200000    0.00138889  37 t-inv T
  0.333333  0.250000 -0.200000    0.00138889  37 t-inv T
 -0.583333  0.333333 -0.200000    0.00138889  37 t-inv T
 -0.250000 -0.333333 -0.200000    0.00138889  37 t-inv T
 -0.333333  0.583333 -0.200000    0.00138889  37 t-inv T
  0.583333 -0.250000 -0.200000    0.00138889  37 t-inv T
 -0.333333 -0.333333 -0.200000    0.00138889  38 t-inv T
  0.333333 -0.666667 -0.200000    0.00138889  38 t-inv T
  0.000000  0.000000 -0.400000    0.00138889  39 t-inv T
 -0.083333  0.000000 -0.400000    0.00138889  40 t-inv T
  0.083333 -0.083333 -0.400000    0.00138889  40 t-inv T
  0.000000  0.083333 -0.400000    0.00138889  40 t-inv T
  0.000000 -0.083333 -0.400000    0.00138889  40 t-inv T
  0.083333  0.000000 -0.400000    0.00138889  40 t-inv T
 -0.083333  0.083333 -0.400000    0.00138889  40 t-inv T
 -0.166667  0.000000 -0.400000    0.00138889  41 t-inv T
  0.166667 -0.166667 -0.400000    0.00138889  41 t-inv T
  0.000000  0.166667 -0.400000    0.00138889  41 t-inv T
  0.000000 -0.166667 -0.400000    0.00138889  41 t-inv T
  0.166667  0.000000 -0.400000    0.00138889  41 t-inv T
 -0.166667  0.166667 -0.400000    0.00138889  41 t-inv T
 -0.250000  0.000000 -0.400000    0.00138889  42 t-inv T
  0.250000 -0.250000 -0.400000    0.00138889  42 t-inv T
  0.000000  0.250000 -0.400000    0.00138889  42 t-inv T
  0.000000 -0.250000 -0.400000    0.00138889  42 t-inv T
  0.250000  0.000000 -0.400000    0.00138889  42 t-inv T
 -0.250000  0.250000 -0.400000    0.00138889  42 t-inv T
 -0.333333  0.000000 -0.400000    0.00138889  43 t-inv T
  0.333333 -0.333333 -0.400000    0.00138889  43 t-inv T
  0.000000  0.333333 -0.400000    0.00138889  43 t-inv T
  0.000000 -0.333333 -0.400000    0.00138889  43 t-inv T
  0.333333  0.000000 -0.400000    0.00138889  43 t-inv T
 -0.333333  0.333333 -0.400000    0.00138889  43 t-inv T
 -0.416667  0.000000 -0.400000    0.00138889  44 t-inv T
  0.416667 -0.416667 -0.400000    0.00138889  44 t-inv T
  0.000000  0.416667 -0.400000    0.00138889  44 t-inv T
  0.000000 -0.416667 -0.400000    0.00138889  44 t-inv T
  0.416667  0.000000 -0.400000    0.00138889  44 t-inv T
 -0.416667  0.416667 -0.400000    0.00138889  44 t-inv T
 -0.500000  0.000000 -0.400000    0.00138889  45 t-inv T
  0.500000 -0.500000 -0.400000    0.00138889  45 t-inv T
  0.000000  0.500000 -0.400000    0.00138889  45 t-inv T
 -0.083333 -0.083333 -0.400000    0.00138889  46 t-inv T
  0.166667 -0.083333 -0.400000    0.00138889  46 t-inv T
 -0.083333  0.166667 -0.400000    0.00138889  46 t-inv T
  0.083333 -0.166667 -0.400000    0.00138889  46 t-inv T
 -0.166667  0.083333 -0.400000    0.00138889  46 t-inv T
  0.083333  0.083333 -0.400000    0.00138889  46 t-inv T
 -0.166667 -0.083333 -0.400000    0.00138889  47 t-inv T
  0.250000 -0.166667 -0.400000    0.00138889  47 t-inv T
 -0.083333  0.250000 -0.400000    0.00138889  47 t-inv T
  0.166667 -0.250000 -0.400000    0.00138889  47 t-inv T
 -0.250000  0.083333 -0.400000    0.00138889  47 t-inv T
  0.083333  0.166667 -0.400000    0.00138889  47 t-inv T
  0.083333 -0.250000 -0.400000    0.00138889  47 t-inv T
  0.166667  0.083333 -0.400000    0.00138889  47 t-inv T
 -0.250000  0.166667 -0.400000    0.00138889  47 t-inv T
 -0.083333 -0.166667 -0.400000    0.00138889  47 t-inv T
 -0.166667  0.250000 -0.400000    0.00138889  47 t-inv T
  0.250000 -0.083333 -0.400000    0.00138889  47 t-inv T
 -0.250000 -0.083333 -0.400000    0.00138889  48 t-inv T
  0.333333 -0.250000 -0.400000    0.00138889  48 t-inv T
 -0.083333  0.333333 -0.400000    0.00138889  48 t-inv T
  0.250000 -0.333333 -0.400000    0.00138889  48 t-inv T
 -0.333333  0.083333 -0.400000    0.00138889  48 t-inv T
  0.083333  0.250000 -0.400000    0.00138889  48 t-inv T
  0.083333 -0.333333 -0.400000    0.00138889  48 t-inv T
  0.250000  0.083333 -0.400000    0.00138889  48 t-inv T
 -0.333333  0.250000 -0.400000    0.00138889  48 t-inv T
 -0.083333 -0.250000 -0.400000    0.00138889  48 t-inv T
 -0.250000  0.333333 -0.400000    0.00138889  48 t-inv T
  0.333333 -0.083333 -0.400000    0.00138889  48 t-inv T
 -0.333333 -0.083333 -0.400000    0.00138889  49 t-inv T
  0.416667 -0.333333 -0.400000    0.00138889  49 t-inv T
 -0.083333  0.416667 -0.400000    0.00138889  49 t-inv T
  0.333333 -0.416667 -0.400000    0.00138889  49 t-inv T
 -0.416667  0.083333 -0.400000    0.00138889  49 t-inv T
  0.083333  0.333333 -0.400000    0.00138889  49 t-inv T
  0.083333 -0.416667 -0.400000    0.00138889  49 t-inv T
  0.333333  0.083333 -0.400000    0.00138889  49 t-inv T
 -0.416667  0.333333 -0.400000    0.00138889  49 t-inv T
 -0.083333 -0.333333 -0.400000    0.00138889  49 t-inv T
 -0.333333  0.416667 -0.400000    0.00138889  49 t-inv T
  0.416667 -0.083333 -0.400000    0.00138889  49 t-inv T
 -0.416667 -0.083333 -0.400000    0.00138889  50 t-inv T
  0.500000 -0.416667 -0.400000    0.00138889  50 t-inv T
 -0.083333  0.500000 -0.400000    0.00138889  50 t-inv T
  0.416667 -0.500000 -0.400000    0.00138889  50 t-inv T
 -0.500000  0.083333 -0.400000    0.00138889  50 t-inv T
  0.083333  0.416667 -0.400000    0.00138889  50 t-inv T
  0.083333 -0.500000 -0.400000    0.00138889  50 t-inv T
  0.416667  0.083333 -0.400000    0.00138889  50 t-inv T
 -0.500000  0.416667 -0.400000    0.00138889  50 t-inv T
 -0.083333 -0.416667 -0.400000    0.00138889  50 t-inv T
 -0.416667  0.500000 -0.400000    0.00138889  50 t-inv T
  0.500000 -0.083333 -0.400000    0.00138889  50 t-inv T
 -0.166667 -0.166667 -0.400000    0.00138889  51 t-inv T
  0.333333 -0.166667 -0.400000    0.00138889  51 t-inv T
 -0.166667  0.333333 -0.400000    0.00138889  51 t-inv T
  0.166667 -0.333333 -0.400000    0.00138889  51 t-inv T
 -0.333333  0.166667 -0.400000    0.00138889  51 t-inv T
  0.166667  0.166667 -0.400000    0.00138889  51 t-inv T
 -0.250000 -0.166667 -0.400000    0.00138889  52 t-inv T
  0.416667 -0.250000 -0.400000    0.00138889  52 t-inv T
 -0.166667  0.416667 -0.400000    0.00138889  52 t-inv T
  0.250000 -0.416667 -0.400000    0.00138889  52 t-inv T
 -0.416667  0.166667 -0.400000    0.00138889  52 t-inv T
  0.166667  0.250000 -0.400000    0.00138889  52 t-inv T
  0.166667 -0.416667 -0.400000    0.00138889  52 t-inv T
  0.250000  0.166667 -0.400000    0.00138889  52 t-inv T
 -0.416667  0.250000 -0.400000    0.00138889  52 t-inv T
 -0.166667 -0.250000 -0.400000    0.00138889  52 t-inv T
 -0.250000  0.416667 -0.400000    0.00138889  52 t-inv T
  0.416667 -0.166667 -0.400000    0.00138889  52 t-inv T
 -0.333333 -0.166667 -0.400000    0.00138889  53 t-inv T
  0.500000 -0.333333 -0.400000    0.00138889  53 t-inv T
 -0.166667  0.500000 -0.400000    0.00138889  53 t-inv T
  0.333333 -0.500000 -0.400000    0.00138889  53 t-inv T
 -0.500000  0.166667 -0.400000    0.00138889  53 t-inv T
  0.166667  0.333333 -0.400000    0.00138889  53 t-inv T
  0.166667 -0.500000 -0.400000    0.00138889  53 t-inv T
  0.333333  0.166667 -0.400000    0.00138889  53 t-inv T
 -0.500000  0.333333 -0.400000    0.00138889  53 t-inv T
 -0.166667 -0.333333 -0.400000    0.00138889  53 t-inv T
 -0.333333  0.500000 -0.400000    0.00138889  53 t-inv T
  0.500000 -0.166667 -0.400000    0.00138889  53 t-inv T
 -0.416667 -0.166667 -0.400000    0.00138889  54 t-inv T
  0.583333 -0.416667 -0.400000    0.00138889  54 t-inv T
 -0.166667  0.583333 -0.400000    0.00138889  54 t-inv T
  0.416667 -0.583333 -0.400000    0.00138889  54 t-inv T
 -0.583333  0.166667 -0.400000    0.00138889  54 t-inv T
  0.166667  0.416667 -0.400000    0.00138889  54 t-inv T
 -0.250000 -0.250000 -0.400000    0.00138889  55 t-inv T
  0.500000 -0.250000 -0.400000    0.00138889  55 t-inv T
 -0.250000  0.500000 -0.400000    0.00138889  55 t-inv T
  0.250000 -0.500000 -0.400000    0.00138889  55 t-inv T
 -0.500000  0.250000 -0.400000    0.00138889  55 t-inv T
  0.250000  0.250000 -0.400000    0.00138889  55 t-inv T
 -0.333333 -0.250000 -0.400000    0.00138889  56 t-inv T
  0.583333 -0.333333 -0.400000    0.00138889  56 t-inv T
 -0.250000  0.583333 -0.400000    0.00138889  56 t-inv T
  0.333333 -0.583333 -0.400000    0.00138889  56 t-inv T
 -0.583333  0.250000 -0.400000    0.00138889  56 t-inv T
  0.250000  0.333333 -0.400000    0.00138889  56 t-inv T
  0.250000 -0.583333 -0.400000    0.00138889  56 t-inv T
  0.333333  0.250000 -0.400000    0.00138889  56 t-inv T
 -0.583333  0.333333 -0.400000    0.00138889  56 t-inv T
 -0.250000 -0.333333 -0.400000    0.00138889  56 t-inv T
 -0.333333  0.583333 -0.400000    0.00138889  56 t-inv T
  0.583333 -0.250000 -0.400000    0.00138889  56 t-inv T
 -0.333333 -0.333333 -0.400000    0.00138889  57 t-inv T
  0.333333 -0.666667 -0.400000    0.00138889  57 t-inv T


--------------------------------------------------------------------------------------------------------




 Dimension of arrays:
   k-points           NKPTS =    258   k-points in BZ     NKDIM =    921   number of bands    NBANDS=     12
   number of dos      NEDOS =   2001   number of ions     NIONS =      4
   non local maximal  LDIM  =      4   non local SUM 2l+1 LMDIM =      8
   total plane-waves  NPLWV =   7168
   max r-space proj   IRMAX =    835   max aug-charges    IRDMAX=  45841
   dimension x,y,z NGX =    16 NGY =   16 NGZ =   28
   dimension x,y,z NGXF=    32 NGYF=   32 NGZF=   56
   support grid    NGXF=    64 NGYF=   64 NGZF=  112
   ions per type =               2   2
   NGX,Y,Z   is equivalent  to a cutoff of   8.60,  8.60,  9.18 a.u.
   NGXF,Y,Z  is equivalent  to a cutoff of  17.21, 17.21, 18.35 a.u.

 SYSTEM =  unknown system                          
 POSCAR =  Primitive Cell                          

 Startparameter for this run:
   NWRITE =      2    write-flag & timer
   PREC   = normal    normal or accurate (medium, high low for compatibility)
   ISTART =      0    job   : 0-new  1-cont  2-samecut
   ICHARG =      2    charge: 1-file 2-atom 10-const
   ISPIN  =      1    spin polarized calculation?
   LNONCOLLINEAR =      F non collinear calculations
   LSORBIT =      F    spin-orbit coupling
   INIWAV =      1    electr: 0-lowe 1-rand  2-diag
   LASPH  =      F    aspherical Exc in radial PAW
   METAGGA=      F    non-selfconsistent MetaGGA calc.

 Electronic Relaxation 1
   ENCUT  =  400.0 eV  29.40 Ry    5.42 a.u.   5.04  5.04  8.27*2*pi/ulx,y,z
   ENINI  =  400.0     initial cutoff
   ENAUG  =  644.9 eV  augmentation charge cutoff
   NELM   =     60;   NELMIN=  2; NELMDL=  0     # of ELM steps 
   EDIFF  = 0.1E-07   stopping-criterion for ELM
   LREAL  =      T    real-space projection
   NLSPLINE    = F    spline interpolate recip. space projectors
   LCOMPAT=      F    compatible to vasp.4.4
   GGA_COMPAT  = T    GGA compatible to vasp.4.4-vasp.4.6
   LMAXPAW     = -100 max onsite density
   LMAXMIX     =    2 max onsite mixed and CHGCAR
   VOSKOWN=      0    Vosko Wilk Nusair interpolation
   ROPT   =    0.00000   0.00000
 Ionic relaxation
   EDIFFG = 0.1E-06   stopping-criterion for IOM
   NSW    =      0    number of steps for IOM
   NBLOCK =      1;   KBLOCK =      1    inner block; outer block 
   IBRION =     -1    ionic relax: 0-MD 1-quasi-New 2-CG
   NFREE  =      0    steps in history (QN), initial steepest desc. (CG)
   ISIF   =      0    stress and relaxation
   IWAVPR =     10    prediction:  0-non 1-charg 2-wave 3-comb
   ISYM   =      3    0-nonsym 1-usesym 2-fastsym
   LCORR  =      T    Harris-Foulkes like correction to forces

   POTIM  = 0.5000    time-step for ionic-motion
   TEIN   =    0.0    initial temperature
   TEBEG  =    0.0;   TEEND  =   0.0 temperature during run
   SMASS  =  -3.00    Nose mass-parameter (am)
   estimated Nose-frequenzy (Omega)   =  0.10E-29 period in steps =****** mass=  -0.218E-27a.u.
   SCALEE = 1.0000    scale energy and forces
   NPACO  =    256;   APACO  = 16.0  distance and # of slots for P.C.
   PSTRESS=    0.0 pullay stress

  Mass of Ions in am
   POMASS =  12.01 28.09
  Ionic Valenz
   ZVAL   =   4.00  4.00
  Atomic Wigner-Seitz radii
   RWIGS  =  -1.00 -1.00
  virtual crystal weights 
   VCA    =   1.00  1.00
   NELECT =      16.0000    total number of electrons
   NUPDOWN=      -1.0000    fix difference up-down

 DOS related values:
   EMIN   =  10.00;   EMAX   =-10.00  energy-range for DOS
   EFERMI =   0.00
   ISMEAR =     0;   SIGMA  =   0.05  broadening in eV -4-tet -1-fermi 0-gaus

 Electronic relaxation 2 (details)
   IALGO  =     58    algorithm
   LDIAG  =      T    sub-space diagonalisation (order eigenvalues)
   LSUBROT=      F    optimize rotation matrix (better conditioning)
   TURBO    =      0    0=normal 1=particle mesh
   IRESTART =      0    0=no restart 2=restart with 2 vectors
   NREBOOT  =      0    no. of reboots
   NMIN     =      0    reboot dimension
   EREF     =   0.00    reference energy to select bands
   IMIX   =      4    mixing-type and parameters
     AMIX     =   0.40;   BMIX     =  1.00
     AMIX_MAG =   1.60;   BMIX_MAG =  1.00
     AMIN     =   0.10
     WC   =   100.;   INIMIX=   1;  MIXPRE=   1;  MAXMIX= -45

 Intra band minimization:
   WEIMIN = 0.0000     energy-eigenvalue tresh-hold
   EBREAK =  0.21E-09  absolut break condition
   DEPER  =   0.30     relativ break condition  

   TIME   =   0.40     timestep for ELM

  volume/ion in A,a.u.               =      10.50        70.86
  Fermi-wavevector in a.u.,A,eV,Ry     =   1.186743  2.242619 19.161888  1.408359
  Thomas-Fermi vector in A             =   2.322909
 
 Write flags
   LWAVE        =      T    write WAVECAR
   LDOWNSAMPLE  =      F    k-point downsampling of WAVECAR
   LCHARG       =      T    write CHGCAR
   LVTOT        =      F    write LOCPOT, total local potential
   LVHAR        =      F    write LOCPOT, Hartree potential only
   LELF         =      F    write electronic localiz. function (ELF)
   LORBIT       =     11    0 simple, 1 ext, 2 COOP (PROOUT), +10 PAW based schemes


 Dipole corrections
   LMONO  =      F    monopole corrections only (constant potential shift)
   LDIPOL =      F    correct potential (dipole corrections)
   IDIPOL =      0    1-x, 2-y, 3-z, 4-all directions 
   EPSILON=  1.0000000 bulk dielectric constant

 Exchange correlation treatment:
   GGA     =    --    GGA type
   LEXCH   =     8    internal setting for exchange type
   VOSKOWN=      0    Vosko Wilk Nusair interpolation
   EXXOEP  =     0    0=HF, 1=EXX-LHF (local Hartree Fock) 2=EXX OEP
   LHFCALC =     T    Hartree Fock is set to
   LSYMGRAD=     F    symmetrize gradient (conserves proper symmetry)
   PRECFOCK=normal    Normal, Fast or Accurate (Low or Medium for compatibility)
   LRHFCALC=     F    long range Hartree Fock
   LRSCOR  =     F    long range correlation only (use DFT for short range part)
   LTHOMAS =     F    Thomas Fermi screening in HF
   LMODELHF=     F    short range full HF, long range fraction AEXX
   ENCUT4O =  -1.0   cutoff for four orbital integrals eV
   LMAXFOCK=     4    L truncation for augmentation on plane wave grid
   LMAXFOCKAE=  -1    L truncation for all-electron charge restoration on plane wave grid
   NMAXFOCKAE=   1    number of basis functions for all-electron charge restoration
   LFOCKAEDFT=     F  apply the AE augmentation even for DFT
   NKREDX  =     1    reduce k-point grid by
   NKREDY  =     1    reduce k-point grid by
   NKREDZ  =     1    reduce k-point grid by
   SHIFTRED=     F    shift reduced grid of Gamma
   HFKIDENT=     F    idential grid for each k-point
   ODDONLY =     F    use only odd q-grid points
   EVENONLY=     F    use only even q-grid points
   HFALPHA =   -1.0000 decay constant for conv. correction
   MCALPHA =    0.0000 extent of test-charge in conv. correction in multipole expansion
   AEXX    =    0.2500 exact exchange contribution
   HFSCREEN=    0.2000 screening length (either q_TF or 0.3 A-1)
   HFSCREENC=   0.2000 screening length for correlation (either q_TF or 0.3 A-1)
   HFRCUT  =    0.0000 spherical cutoff for potential kernel
   ALDAX   =    0.7500 LDA exchange part
   AGGAX   =    0.7500 GGA exchange part
   ALDAC   =    1.0000 LDA correlation
   AGGAC   =    1.0000 GGA correlation
   NBANDSGWLOW=     1    first orbital included in HF term
   ENCUTFOCK=  -1.0 apply spherical cutoff to Coloumb kernel
 Linear response parameters
   LEPSILON=     F    determine dielectric tensor
   LRPA    =     F    only Hartree local field effects (RPA)
   LNABLA  =     F    use nabla operator in PAW spheres
   LVEL    =     F    velocity operator in full k-point grid
   LINTERFAST=   F  fast interpolation
   KINTER  =     0    interpolate to denser k-point grid
   CSHIFT  =0.1000    complex shift for real part using Kramers Kronig
   OMEGAMAX=  -1.0    maximum frequency
   DEG_THRESHOLD= 0.2000000E-02 threshold for treating states as degnerate
   RTIME   =   -0.100 relaxation time in fs
[...]

 k-point   232 :       0.5000    0.0000    0.3929
  band No.  band energies     occupation 
      1      -5.4449      2.00000
      2      -4.8367      2.00000
      3      -1.7313      2.00000
      4      -1.0929      2.00000
      5       4.1984      2.00000
      6       4.4728      2.00000
      7       5.2034      2.00000
      8       5.3002      2.00000
      9      11.4497      0.00000
     10      11.8620      0.00000
     11      14.1264      0.00000
     12      14.2772      0.00000

 k-point   233 :       0.5000    0.0000    0.3571
  band No.  band energies     occupation 
      1      -5.5415      2.00000
      2      -4.7523      2.00000
      3      -1.7514      2.00000
      4      -0.9229      2.00000
      5       3.9038      2.00000
      6       4.3712      2.00000
      7       5.2998      2.00000
      8       5.3338      2.00000
      9      11.4355      0.00000
     10      11.8053      0.00000
     11      14.4411      0.00000
     12      14.5130      0.00000

 k-point   234 :       0.5000    0.0000    0.3214
  band No.  band energies     occupation 
      1      -5.6320      2.00000
      2      -4.6789      2.00000
      3      -1.7420      2.00000
      4      -0.7416      2.00000
      5       3.5990      2.00000
      6       4.2775      2.00000
      7       5.2410      2.00000
      8       5.4631      2.00000
      9      11.4774      0.00000
     10      11.7240      0.00000
     11      14.7621      0.00000
     12      14.8237      0.00000

 k-point   235 :       0.5000    0.0000    0.2857
  band No.  band energies     occupation 
      1      -5.7154      2.00000
      2      -4.6180      2.00000
      3      -1.7034      2.00000
      4      -0.5520      2.00000
      5       3.2907      2.00000
      6       4.1926      2.00000
      7       5.1310      2.00000
      8       5.5891      2.00000
      9      11.5721      0.00000
     10      11.6331      0.00000
     11      15.0116      0.00000
     12      15.2544      0.00000

 k-point   236 :       0.5000    0.0000    0.2500
  band No.  band energies     occupation 
      1      -5.7907      2.00000
      2      -4.5698      2.00000
      3      -1.6376      2.00000
      4      -0.3577      2.00000
      5       2.9847      2.00000
      6       4.1166      2.00000
      7       4.9809      2.00000
      8       5.7084      2.00000
      9      11.5424      0.00000
     10      11.7108      0.00000
     11      15.2424      0.00000
     12      15.7174      0.00000

 k-point   237 :       0.5000    0.0000    0.2143
  band No.  band energies     occupation 
      1      -5.8572      2.00000
      2      -4.5334      2.00000
      3      -1.5484      2.00000
      4      -0.1626      2.00000
      5       2.6880      2.00000
      6       4.0500      2.00000
      7       4.8042      2.00000
      8       5.8192      2.00000
      9      11.4578      0.00000
     10      11.8821      0.00000
     11      15.4342      0.00000
     12      16.2045      0.00000

 k-point   238 :       0.5000    0.0000    0.1786
  band No.  band energies     occupation 
      1      -5.9143      2.00000
      2      -4.5074      2.00000
      3      -1.4418      2.00000
      4       0.0271      2.00000
      5       2.4064      2.00000
      6       3.9931      2.00000
      7       4.6153      2.00000
      8       5.9190      2.00000
      9      11.3826      0.00000
     10      12.0723      0.00000
     11      15.5632      0.00000
     12      16.7031      0.00000

 k-point   239 :       0.5000    0.0000    0.1429
  band No.  band energies     occupation 
      1      -5.9616      2.00000
      2      -4.4899      2.00000
      3      -1.3260      2.00000
      4       0.2046      2.00000
      5       2.1483      2.00000
      6       3.9457      2.00000
      7       4.4284      2.00000
      8       6.0051      2.00000
      9      11.3191      0.00000
     10      12.2669      0.00000
     11      15.6138      0.00000
     12      16.1551      0.00000

 k-point   240 :       0.5000    0.0000    0.1071
  band No.  band energies     occupation 
      1      -5.9988      2.00000
      2      -4.4787      2.00000
      3      -1.2118      2.00000
      4       0.3612      2.00000
      5       1.9249      2.00000
      6       3.9091      2.00000
      7       4.2599      2.00000
      8       6.0752      2.00000
      9      11.2688      0.00000
     10      12.4504      0.00000
     11      15.6032      0.00000
     12      16.0045      0.00000

 k-point   241 :       0.5000    0.0000    0.0714
  band No.  band energies     occupation 
      1      -6.0255      2.00000
      2      -4.4721      2.00000
      3      -1.1131      2.00000
      4       0.4855      2.00000
      5       1.7487      2.00000
      6       3.8828      2.00000
      7       4.1235      2.00000
      8       6.1270      2.00000
      9      11.2323      0.00000
     10      12.6033      0.00000
     11      15.5555      0.00000
     12      15.8933      0.00000

 k-point   242 :       0.5000    0.0000    0.0357
  band No.  band energies     occupation 
      1      -6.0415      2.00000
      2      -4.4687      2.00000
      3      -1.0448      2.00000
      4       0.5664      2.00000
      5       1.6345      2.00000
      6       3.8673      2.00000
      7       4.0340      2.00000
      8       6.1583      2.00000
      9      11.2103      0.00000
     10      12.7055      0.00000
     11      15.5085      0.00000
     12      15.8264      0.00000

 k-point   243 :       0.5000    0.0000    0.0000
  band No.  band energies     occupation 
      1      -6.0469      2.00000
      2      -4.4677      2.00000
      3      -1.0203      2.00000
      4       0.5945      2.00000
      5       1.5946      2.00000
      6       3.8620      2.00000
      7       4.0028      2.00000
      8       6.1691      2.00000
      9      11.2029      0.00000
     10      12.7421      0.00000
     11      15.4891      0.00000
     12      15.8040      0.00000

 k-point   244 :       0.3333    0.3333    0.5000
  band No.  band energies     occupation 
      1      -4.5047      2.00000
      2      -4.5047      2.00000
      3      -0.9630      2.00000
      4      -0.9630      2.00000
      5       1.4213      2.00000
      6       1.4213      2.00000
      7       5.5807      2.00000
      8       5.5807      2.00000
      9      13.6215      0.00000
     10      13.6215      0.00000
     11      14.6672      0.00000
     12      14.6672      0.00000

 k-point   245 :       0.3333    0.3333    0.4643
  band No.  band energies     occupation 
      1      -4.5090      2.00000
      2      -4.5090      2.00000
      3      -0.9482      2.00000
      4      -0.9482      2.00000
      5       1.2653      2.00000
      6       1.5848      2.00000
      7       5.5510      2.00000
      8       5.5510      2.00000
      9      13.6603      0.00000
     10      13.6603      0.00000
     11      14.2711      0.00000
     12      15.0478      0.00000

 k-point   246 :       0.3333    0.3333    0.4286
  band No.  band energies     occupation 
      1      -4.5216      2.00000
      2      -4.5216      2.00000
      3      -0.9043      2.00000
      4      -0.9043      2.00000
      5       1.1182      2.00000
      6       1.7548      2.00000
      7       5.4644      2.00000
      8       5.4644      2.00000
      9      13.7748      0.00000
     10      13.7748      0.00000
     11      13.8683      0.00000
     12      15.4050      0.00000

 k-point   247 :       0.3333    0.3333    0.3929
  band No.  band energies     occupation 
      1      -4.5415      2.00000
      2      -4.5415      2.00000
      3      -0.8323      2.00000
      4      -0.8323      2.00000
      5       0.9806      2.00000
      6       1.9300      2.00000
      7       5.3265      2.00000
      8       5.3265      2.00000
      9      13.4662      0.00000
     10      13.9592      0.00000
     11      13.9592      0.00000
     12      15.7299      0.00000

 k-point   248 :       0.3333    0.3333    0.3571
  band No.  band energies     occupation 
      1      -4.5673      2.00000
      2      -4.5673      2.00000
      3      -0.7348      2.00000
      4      -0.7348      2.00000
      5       0.8532      2.00000
      6       2.1080      2.00000
      7       5.1451      2.00000
      8       5.1451      2.00000
      9      13.0704      0.00000
     10      14.2056      0.00000
     11      14.2056      0.00000
     12      16.0148      0.00000

 k-point   249 :       0.3333    0.3333    0.3214
  band No.  band energies     occupation 
      1      -4.5972      2.00000
      2      -4.5972      2.00000
      3      -0.6141      2.00000
      4      -0.6141      2.00000
      5       0.7366      2.00000
      6       2.2870      2.00000
      7       4.9295      2.00000
      8       4.9295      2.00000
      9      12.6871      0.00000
     10      14.5045      0.00000
     11      14.5045      0.00000
     12      16.2550      0.00000

 k-point   250 :       0.3333    0.3333    0.2857
  band No.  band energies     occupation 
      1      -4.6294      2.00000
      2      -4.6294      2.00000
      3      -0.4738      2.00000
      4      -0.4738      2.00000
      5       0.6312      2.00000
      6       2.4641      2.00000
      7       4.6895      2.00000
      8       4.6895      2.00000
      9      12.3218      0.00000
     10      14.8464      0.00000
     11      14.8465      0.00000
     12      16.4496      0.00000

 k-point   251 :       0.3333    0.3333    0.2500
  band No.  band energies     occupation 
      1      -4.6621      2.00000
      2      -4.6621      2.00000
      3      -0.3175      2.00000
      4      -0.3175      2.00000
      5       0.5375      2.00000
      6       2.6363      2.00000
      7       4.4338      2.00000
      8       4.4338      2.00000
      9      11.9796      0.00000
     10      15.2214      0.00000
     11      15.2215      0.00000
     12      16.6013      0.00000

 k-point   252 :       0.3333    0.3333    0.2143
  band No.  band energies     occupation 
      1      -4.6936      2.00000
      2      -4.6936      2.00000
      3      -0.1497      2.00000
      4      -0.1497      2.00000
      5       0.4558      2.00000
      6       2.7998      2.00000
      7       4.1735      2.00000
      8       4.1735      2.00000
      9      11.6664      0.00000
     10      15.6231      0.00000
     11      15.6232      0.00000
     12      16.7163      0.00000

 k-point   253 :       0.3333    0.3333    0.1786
  band No.  band energies     occupation 
      1      -4.7226      2.00000
      2      -4.7226      2.00000
      3       0.0234      2.00000
      4       0.0234      2.00000
      5       0.3862      2.00000
      6       2.9503      2.00000
      7       3.9156      2.00000
      8       3.9156      2.00000
      9      11.3872      0.00000
     10      16.0384      0.00000
     11      16.0384      0.00000
     12      16.8000      0.00000

 k-point   254 :       0.3333    0.3333    0.1429
  band No.  band energies     occupation 
      1      -4.7478      2.00000
      2      -4.7478      2.00000
      3       0.1946      2.00000
      4       0.1946      2.00000
      5       0.3291      2.00000
      6       3.0831      2.00000
      7       3.6720      2.00000
      8       3.6720      2.00000
      9      11.1481      0.00000
     10      16.4589      0.00000
     11      16.4602      0.00000
     12      16.8597      0.00000

 k-point   255 :       0.3333    0.3333    0.1071
  band No.  band energies     occupation 
      1      -4.7684      2.00000
      2      -4.7684      2.00000
      3       0.2844      2.00000
      4       0.3533      2.00000
      5       0.3533      2.00000
      6       3.1925      2.00000
      7       3.4547      2.00000
      8       3.4547      2.00000
      9      10.9539      0.00000
     10      16.8698      0.00000
     11      16.8714      0.00000
     12      16.9003      0.00000

 k-point   256 :       0.3333    0.3333    0.0714
  band No.  band energies     occupation 
      1      -4.7836      2.00000
      2      -4.7836      2.00000
      3       0.2525      2.00000
      4       0.4863      2.00000
      5       0.4863      2.00000
      6       3.2759      2.00000
      7       3.2795      2.00000
      8       3.2795      2.00000
      9      10.8113      0.00000
     10      16.9272      0.00000
     11      17.2539      0.00000
     12      17.2606      0.00000

 k-point   257 :       0.3333    0.3333    0.0357
  band No.  band energies     occupation 
      1      -4.7929      2.00000
      2      -4.7929      2.00000
      3       0.2333      2.00000
      4       0.5765      2.00000
      5       0.5765      2.00000
      6       3.1633      2.00000
      7       3.1633      2.00000
      8       3.3274      2.00000
      9      10.7237      0.00000
     10      16.9421      0.00000
     11      17.5600      0.00000
     12      17.5625      0.00000

 k-point   258 :       0.3333    0.3333    0.0000
  band No.  band energies     occupation 
      1      -4.7961      2.00000
      2      -4.7961      2.00000
      3       0.2269      2.00000
      4       0.6087      2.00000
      5       0.6087      2.00000
      6       3.1223      2.00000
      7       3.1223      2.00000
      8       3.3448      2.00000
      9      10.6941      0.00000
     10      16.9468      0.00000
     11      17.6936      0.00000
     12      17.9575      0.00000


--------------------------------------------------------------------------------------------------------


 soft charge-density along one line, spin component           1
         0         1         2         3         4         5         6         7         8         9
 total charge-density along one line
 
 pseudopotential strength for first ion, spin component:           1
  9.135  12.127  -0.000   0.000   0.000   0.000  -0.001  -0.000
 12.127  16.098  -0.000   0.000   0.000   0.000  -0.001  -0.000
 -0.000  -0.000  -3.465   0.000   0.000   6.761  -0.000  -0.000
  0.000   0.000   0.000  -3.466  -0.000  -0.000   6.762   0.000
  0.000   0.000   0.000  -0.000  -3.465  -0.000   0.000   6.761
  0.000   0.000   6.761  -0.000  -0.000 -15.262   0.000   0.000
 -0.001  -0.001  -0.000   6.762   0.000   0.000 -15.264  -0.000
 -0.000  -0.000  -0.000   0.000   6.761   0.000  -0.000 -15.262
 total augmentation occupancy for first ion, spin component:           1
  5.859  -2.295   0.000   0.015  -0.000   0.000   0.002  -0.000
 -2.295   0.948  -0.000  -0.012   0.000  -0.000  -0.001   0.000
  0.000  -0.000   1.522   0.000   0.000   0.123   0.000   0.000
  0.015  -0.012   0.000   1.550  -0.000  -0.000   0.136  -0.000
 -0.000   0.000   0.000  -0.000   1.522  -0.000  -0.000   0.123
  0.000  -0.000   0.123  -0.000  -0.000   0.010   0.000   0.000
  0.002  -0.001   0.000   0.136  -0.000   0.000   0.012  -0.000
 -0.000   0.000   0.000  -0.000   0.123   0.000  -0.000   0.010


------------------------ aborting loop because EDIFF is reached ----------------------------------------


 


 total charge     
 
# of ion       s       p       d       tot
------------------------------------------
    1        0.822   1.700   0.000   2.522
    2        0.822   1.703   0.000   2.524
    3        0.713   0.968   0.000   1.681
    4        0.718   0.966   0.000   1.684
--------------------------------------------------
tot          3.075   5.337   0.000   8.412
 
    FORLOC:  cpu time    0.0020: real time    0.0020
    FORHF :  cpu time  713.9102: real time  713.8345
    FORNL :  cpu time    0.2541: real time    0.4860
    FORCOR:  cpu time    0.1431: real time    0.1431
    OFIELD:  cpu time    0.0001: real time    0.0001

 VOLUME and BASIS-vectors are now :
 -----------------------------------------------------------------------------
  energy-cutoff  :      400.00
  volume of cell :       42.00
      direct lattice vectors                 reciprocal lattice vectors
     3.091999762  0.000000000  0.000000000     0.323415290  0.186723905  0.000000000
    -1.545999881  2.677750343  0.000000000     0.000000000  0.373447810  0.000000000
     0.000000000  0.000000000  5.073000000     0.000000000  0.000000000  0.197122019

  length of vectors
     3.091999762  3.091999762  5.073000000     0.373447810  0.373447810  0.197122019


 FORCES acting on ions:
    Electron-Ion                     Ewald-Force                    Non-Local-Force
 -----------------------------------------------------------------------------------------------
   -.116E-05 0.511E-06 0.156E+01   -.564E-11 0.301E-11 -.177E+01   0.694E-17 0.000E+00 0.141E+00
   0.102E-05 -.920E-06 0.156E+01   0.563E-11 -.301E-11 -.177E+01   -.260E-17 0.000E+00 0.141E+00
   0.157E-05 0.755E-06 -.193E+01   -.563E-11 0.301E-11 0.177E+01   0.416E-16 0.000E+00 0.131E+00
   -.133E-05 0.166E-07 -.193E+01   0.564E-11 -.301E-11 0.177E+01   -.833E-16 0.000E+00 0.131E+00
 -----------------------------------------------------------------------------------------------
   0.505E-07 0.297E-06 -.755E+00   0.339E-15 0.822E-15 0.000E+00   -.373E-16 0.000E+00 0.544E+00
 
 
 POSITION                                       TOTAL-FORCE (eV/Angst)
 -----------------------------------------------------------------------------------
      0.00000      1.78517      4.44096         0.000000      0.000000     -0.017725
      1.54600      0.89258      1.90446        -0.000000     -0.000000     -0.017725
      0.00000      1.78517      2.53441        -0.000000      0.000000      0.017725
      1.54600      0.89258      5.07091         0.000000     -0.000000      0.017725
 -----------------------------------------------------------------------------------
    total drift:                                0.000000      0.000000     -0.154830


--------------------------------------------------------------------------------------------------------



  FREE ENERGIE OF THE ION-ELECTRON SYSTEM (eV)
  ---------------------------------------------------
  free  energy   TOTEN  =       -35.01274716 eV

  energy  without entropy=      -35.01274716  energy(sigma->0) =      -35.01274716
 


--------------------------------------------------------------------------------------------------------


    POTLOK:  cpu time    0.1403: real time    0.1402


--------------------------------------------------------------------------------------------------------


 writing wavefunctions
     LOOP+:  cpu time 3718.0358: real time 3718.1183
    4ORBIT:  cpu time    0.0000: real time    0.0000
 


 total charge     
 
# of ion       s       p       d       tot
------------------------------------------
    1        0.822   1.700   0.000   2.522
    2        0.822   1.703   0.000   2.524
    3        0.713   0.968   0.000   1.681
    4        0.718   0.966   0.000   1.684
--------------------------------------------------
tot          3.075   5.337   0.000   8.412
 

 total amount of memory used by VASP MPI-rank0   164136. kBytes
=======================================================================

   base      :      30000. kBytes
   nonlr-proj:        882. kBytes
   fftplans  :       8536. kBytes
   grid      :       3584. kBytes
   one-center:         12. kBytes
   HF        :          9. kBytes
   wavefun   :     121113. kBytes
 
  
  
 General timing and accounting informations for this job:
 ========================================================
  
                  Total CPU time used (sec):     4115.414
                            User time (sec):     3827.632
                          System time (sec):      287.781
                         Elapsed time (sec):     4116.366
  
                   Maximum memory used (kb):     1007704.
                   Average memory used (kb):           0.
  
                          Minor page faults:       130882
                          Major page faults:            0
                 Voluntary context switches:        48230
